<?xml version="1.0"?>
<VTKFile type="UnstructuredGrid"  byte_order="LittleEndian">
<UnstructuredGrid>
<Piece NumberOfPoints="1182" NumberOfCells=" 2366">
<Points>
<DataArray type="Float32" NumberOfComponents="3" format="ascii">
7.590387 1.640115 0.000000 27.043539 1.704303 0.000000 0.551917 -3.608792 0.000000 34.553448 -3.608792 0.000000 0.551917 4.695652 0.000000 34.553448 4.695652 0.000000 7.585061 1.746831 0.000000 7.569136 1.852487 0.000000 7.542770 1.956032 0.000000 7.506226 2.056438 0.000000 7.459866 2.152706 0.000000 7.404150 2.243880 0.000000 7.339634 2.329053 0.000000 7.266958 2.407379 0.000000 7.186844 2.478080 0.000000 7.100090 2.540452 0.000000 7.007555 2.593877 0.000000 6.910161 2.637823 0.000000 6.808876 2.671853 0.000000 6.704705 2.695629 0.000000 6.598685 2.708915 0.000000 6.491869 2.711579 0.000000 6.385318 2.703594 0.000000 6.280092 2.685040 0.000000 6.177237 2.656101 0.000000 6.077773 2.617064 0.000000 5.982691 2.568319 0.000000 5.892934 2.510348 0.000000 5.809396 2.443728 0.000000 5.732906 2.369122 0.000000 5.664225 2.287271 0.000000 5.604034 2.198987 0.000000 5.552933 2.105150 0.000000 5.511429 2.006691 0.000000 5.479935 1.904588 0.000000 5.458763 1.799858 0.000000 5.448124 1.693539 0.000000 5.448124 1.586690 0.000000 5.458763 1.480371 0.000000 5.479935 1.375641 0.000000 5.511429 1.273538 0.000000 5.552933 1.175079 0.000000 5.604034 1.081241 0.000000 5.664225 0.992958 0.000000 5.732906 0.911107 0.000000 5.809396 0.836501 0.000000 5.892934 0.769881 0.000000 5.982691 0.711911 0.000000 6.077773 0.663165 0.000000 6.177237 0.624128 0.000000 6.280092 0.595189 0.000000 6.385318 0.576635 0.000000 6.491869 0.568650 0.000000 6.598685 0.571314 0.000000 6.704705 0.584600 0.000000 6.808876 0.608376 0.000000 6.910161 0.642406 0.000000 7.007555 0.686352 0.000000 7.100090 0.739777 0.000000 7.186844 0.802149 0.000000 7.266958 0.872850 0.000000 7.339634 0.951176 0.000000 7.404150 1.036349 0.000000 7.459866 1.127523 0.000000 7.506226 1.223791 0.000000 7.542770 1.324197 0.000000 7.569136 1.427742 0.000000 7.585061 1.533398 0.000000 27.037022 1.834877 0.000000 27.017536 1.964154 0.000000 26.985275 2.090848 0.000000 26.940561 2.213700 0.000000 26.883837 2.331490 0.000000 26.815666 2.443046 0.000000 26.736727 2.547261 0.000000 26.647804 2.643097 0.000000 26.549780 2.729604 0.000000 26.443630 2.805921 0.000000 26.330408 2.871289 0.000000 26.211241 2.925060 0.000000 26.087313 2.966697 0.000000 25.959852 2.995789 0.000000 25.830132 3.012045 0.000000 25.699434 3.015305 0.000000 25.569063 3.005535 0.000000 25.440313 2.982832 0.000000 25.314463 2.947424 0.000000 25.192764 2.899660 0.000000 25.076426 2.840017 0.000000 24.966602 2.769086 0.000000 24.864389 2.687573 0.000000 24.770798 2.596288 0.000000 24.686762 2.496138 0.000000 24.613115 2.388118 0.000000 24.550591 2.273302 0.000000 24.499807 2.152832 0.000000 24.461273 2.027903 0.000000 24.435368 1.899759 0.000000 24.422350 1.769672 0.000000 24.422350 1.638935 0.000000 24.435368 1.508848 0.000000 24.461273 1.380703 0.000000 24.499807 1.255775 0.000000 24.550591 1.135304 0.000000 24.613115 1.020489 0.000000 24.686762 0.912469 0.000000 24.770798 0.812319 0.000000 24.864389 0.721034 0.000000 24.966602 0.639521 0.000000 25.076426 0.568590 0.000000 25.192764 0.508946 0.000000 25.314463 0.461183 0.000000 25.440313 0.425774 0.000000 25.569063 0.403072 0.000000 25.699434 0.393302 0.000000 25.830132 0.396561 0.000000 25.959852 0.412818 0.000000 26.087313 0.441909 0.000000 26.211241 0.483547 0.000000 26.330408 0.537318 0.000000 26.443630 0.602686 0.000000 26.549780 0.679003 0.000000 26.647804 0.765509 0.000000 26.736727 0.861346 0.000000 26.815666 0.965560 0.000000 26.883837 1.077117 0.000000 26.940561 1.194906 0.000000 26.985275 1.317759 0.000000 27.017536 1.444453 0.000000 27.037022 1.573729 0.000000 1.551962 -3.608792 0.000000 2.552007 -3.608792 0.000000 3.552052 -3.608792 0.000000 4.552097 -3.608792 0.000000 5.552142 -3.608792 0.000000 6.552187 -3.608792 0.000000 7.552232 -3.608792 0.000000 8.552278 -3.608792 0.000000 9.552322 -3.608792 0.000000 10.552367 -3.608792 0.000000 11.552412 -3.608792 0.000000 12.552457 -3.608792 0.000000 13.552502 -3.608792 0.000000 14.552547 -3.608792 0.000000 15.552592 -3.608792 0.000000 16.552637 -3.608792 0.000000 17.552681 -3.608792 0.000000 18.552727 -3.608792 0.000000 19.552773 -3.608792 0.000000 20.552816 -3.608792 0.000000 21.552862 -3.608792 0.000000 22.552906 -3.608792 0.000000 23.552952 -3.608792 0.000000 24.552996 -3.608792 0.000000 25.553041 -3.608792 0.000000 26.553087 -3.608792 0.000000 27.553131 -3.608792 0.000000 28.553177 -3.608792 0.000000 29.553221 -3.608792 0.000000 30.553267 -3.608792 0.000000 31.553310 -3.608792 0.000000 32.553356 -3.608792 0.000000 33.553402 -3.608792 0.000000 0.551917 3.772936 0.000000 0.551917 2.850220 0.000000 0.551917 1.927504 0.000000 0.551917 1.004788 0.000000 0.551917 0.082072 0.000000 0.551917 -0.840644 0.000000 0.551917 -1.763360 0.000000 0.551917 -2.686076 0.000000 34.553448 -2.686076 0.000000 34.553448 -1.763360 0.000000 34.553448 -0.840644 0.000000 34.553448 0.082072 0.000000 34.553448 1.004788 0.000000 34.553448 1.927504 0.000000 34.553448 2.850220 0.000000 34.553448 3.772936 0.000000 33.553402 4.695652 0.000000 32.553356 4.695652 0.000000 31.553310 4.695652 0.000000 30.553267 4.695652 0.000000 29.553221 4.695652 0.000000 28.553177 4.695652 0.000000 27.553131 4.695652 0.000000 26.553087 4.695652 0.000000 25.553041 4.695652 0.000000 24.552996 4.695652 0.000000 23.552952 4.695652 0.000000 22.552906 4.695652 0.000000 21.552862 4.695652 0.000000 20.552816 4.695652 0.000000 19.552773 4.695652 0.000000 18.552727 4.695652 0.000000 17.552681 4.695652 0.000000 16.552637 4.695652 0.000000 15.552592 4.695652 0.000000 14.552547 4.695652 0.000000 13.552502 4.695652 0.000000 12.552457 4.695652 0.000000 11.552412 4.695652 0.000000 10.552367 4.695652 0.000000 9.552322 4.695652 0.000000 8.552278 4.695652 0.000000 7.552232 4.695652 0.000000 6.552187 4.695652 0.000000 5.552142 4.695652 0.000000 4.552097 4.695652 0.000000 3.552052 4.695652 0.000000 2.552007 4.695652 0.000000 1.551962 4.695652 0.000000 33.724567 0.508299 0.000000 11.051656 -2.766278 0.000000 21.139784 -2.787749 0.000000 10.935472 3.803563 0.000000 30.195410 -2.697597 0.000000 21.052839 3.829587 0.000000 29.974371 3.844336 0.000000 1.319559 -0.299473 0.000000 15.006160 -2.704889 0.000000 18.047722 -2.850818 0.000000 14.011737 3.856393 0.000000 17.139971 3.853140 0.000000 8.950519 -2.764425 0.000000 3.970718 -2.760476 0.000000 23.112226 -2.744326 0.000000 3.124907 3.880425 0.000000 27.992355 -2.779806 0.000000 7.118870 -2.780429 0.000000 26.780756 2.687614 0.000000 26.602230 2.866178 0.000000 26.311014 3.025702 0.000000 26.068487 3.106947 0.000000 25.754820 3.119691 0.000000 25.473955 3.095815 0.000000 25.227036 3.025862 0.000000 24.953060 2.881751 0.000000 24.723825 2.740101 0.000000 25.038670 -2.798708 0.000000 7.087193 2.645732 0.000000 6.879270 2.763095 0.000000 6.673219 2.806642 0.000000 6.406996 2.817924 0.000000 6.206882 2.773392 0.000000 5.986476 2.678158 0.000000 13.035991 -2.756704 0.000000 1.344879 1.406994 0.000000 19.037136 3.807644 0.000000 32.002907 3.763448 0.000000 32.053333 -2.742727 0.000000 9.079531 3.970939 0.000000 7.455732 2.345003 0.000000 23.066832 3.917617 0.000000 24.479065 2.388754 0.000000 28.073982 4.048512 0.000000 33.754353 2.388862 0.000000 33.648380 -1.318315 0.000000 4.981415 3.939654 0.000000 5.703810 2.475467 0.000000 2.140383 -2.736361 0.000000 1.351537 3.345709 0.000000 6.986235 3.858003 0.000000 5.960060 3.924703 0.000000 5.532193 3.320801 0.000000 7.969069 3.967063 0.000000 7.713296 3.420030 0.000000 25.131266 4.070443 0.000000 25.872070 4.087998 0.000000 26.796637 3.833629 0.000000 24.213377 3.927758 0.000000 24.634306 3.448262 0.000000 3.899429 3.940366 0.000000 3.610331 3.211323 0.000000 5.439022 2.092513 0.000000 5.554421 2.297472 0.000000 2.810457 3.133204 0.000000 3.221574 2.580764 0.000000 3.852660 2.572575 0.000000 3.572082 2.118503 0.000000 5.354082 1.640673 0.000000 4.083554 2.122351 0.000000 3.876632 1.720562 0.000000 4.354224 1.773208 0.000000 4.138825 1.381329 0.000000 5.407259 1.297314 0.000000 3.680238 1.320389 0.000000 4.026366 0.939471 0.000000 3.492389 0.877911 0.000000 3.801660 0.481645 0.000000 4.337317 0.525114 0.000000 5.627680 0.892553 0.000000 5.492958 1.074774 0.000000 4.121192 0.099423 0.000000 4.584746 0.138402 0.000000 4.420470 -0.281072 0.000000 4.862816 -0.200356 0.000000 5.988017 0.605194 0.000000 5.791260 0.726384 0.000000 3.920798 -0.394856 0.000000 4.721516 -0.646139 0.000000 5.216848 -0.502817 0.000000 5.034639 -1.015870 0.000000 5.516833 -0.919676 0.000000 6.315949 0.490896 0.000000 4.435223 2.101763 0.000000 5.699584 -0.492710 0.000000 5.980427 -0.836766 0.000000 6.153407 -0.400070 0.000000 6.387030 -0.737863 0.000000 6.784220 0.500031 0.000000 6.541815 -0.387363 0.000000 6.762029 -0.663056 0.000000 6.875831 -0.273366 0.000000 7.116402 -0.584745 0.000000 7.232467 -0.205470 0.000000 7.470675 -0.514262 0.000000 7.585718 -0.175604 0.000000 7.372202 0.847848 0.000000 7.825456 -0.447940 0.000000 7.937931 -0.094010 0.000000 8.214787 -0.384391 0.000000 8.319334 0.054914 0.000000 7.575628 1.132270 0.000000 7.198897 0.690839 0.000000 8.646852 -0.312200 0.000000 8.801415 0.150288 0.000000 7.690736 1.689806 0.000000 7.633921 1.344939 0.000000 7.643452 1.915976 0.000000 9.146951 -0.239515 0.000000 9.322555 0.288120 0.000000 9.694048 -0.153051 0.000000 9.907817 0.447447 0.000000 9.464732 0.840690 0.000000 10.346452 -0.029220 0.000000 10.564996 0.619249 0.000000 11.048773 0.073457 0.000000 11.298134 0.809907 0.000000 11.834050 0.215960 0.000000 7.734757 -0.804458 0.000000 12.088260 1.003695 0.000000 12.664267 0.373300 0.000000 8.466400 0.476012 0.000000 7.051124 -1.042493 0.000000 6.319088 -1.133701 0.000000 3.186545 1.292977 0.000000 8.462682 -0.832764 0.000000 4.527759 1.434794 0.000000 12.935677 1.212260 0.000000 13.541065 0.544104 0.000000 3.157978 0.380255 0.000000 10.782843 1.362
[...]
<CellData Scalars="Label">
<DataArray type="Int32" Name="Label" format="ascii">
1 1 1 1 1 1 1 1 1 1 1 1 1 1 1 1 1 1 1 1 1 1 1 1 1 1 1 1 1 1 1 1 1 1 1 1 1 1 1 1 1 1 1 1 1 1 1 1 1 1 1 1 1 1 1 1 1 1 1 1 1 1 1 1 1 1 1 1 1 1 1 1 1 1 1 1 1 1 1 1 1 1 1 1 1 1 1 1 1 1 1 1 1 1 1 1 1 1 1 1 1 1 1 1 1 1 1 1 1 1 1 1 1 1 1 1 1 1 1 1 1 1 1 1 1 1 1 1 1 1 1 1 1 1 1 1 1 1 1 1 1 1 1 1 1 1 1 1 1 1 1 1 1 1 1 1 1 1 1 1 1 1 1 1 1 1 1 1 1 1 1 1 1 1 1 1 1 1 1 1 1 1 1 1 1 1 1 1 1 1 1 1 1 1 1 1 1 1 1 1 1 1 1 1 1 1 1 1 1 1 1 1 1 1 1 1 1 1 1 1 1 1 1 1 1 1 1 1 1 1 1 1 1 1 1 1 1 1 1 1 1 1 1 1 1 1 1 1 1 1 1 1 1 1 1 1 1 1 1 1 1 1 1 1 1 1 1 1 1 1 1 1 1 1 1 1 1 1 1 1 1 1 1 1 1 1 1 1 1 1 1 1 1 1 1 1 1 1 1 1 1 1 1 1 1 1 1 1 1 1 1 1 1 1 1 1 1 1 1 1 1 1 1 1 1 1 1 1 1 1 1 1 1 1 1 1 1 1 1 1 1 1 1 1 1 1 1 1 1 1 1 1 1 1 1 1 1 1 1 1 1 1 1 1 1 1 1 1 1 1 1 1 1 1 1 1 1 1 1 1 1 1 1 1 1 1 1 1 1 1 1 1 1 1 1 1 1 1 1 1 1 1 1 1 1 1 1 1 1 1 1 1 1 1 1 1 1 1 1 1 1 1 1 1 1 1 1 1 1 1 1 1 1 1 1 1 1 1 1 1 1 1 1 1 1 1 1 1 1 1 1 1 1 1 1 1 1 1 1 1 1 1 1 1 1 1 1 1 1 1 1 1 1 1 1 1 1 1 1 1 1 1 1 1 1 1 1 1 1 1 1 1 1 1 1 1 1 1 1 1 1 1 1 1 1 1 1 1 1 1 1 1 1 1 1 1 1 1 1 1 1 1 1 1 1 1 1 1 1 1 1 1 1 1 1 1 1 1 1 1 1 1 1 1 1 1 1 1 1 1 1 1 1 1 1 1 1 1 1 1 1 1 1 1 1 1 1 1 1 1 1 1 1 1 1 1 1 1 1 1 1 1 1 1 1 1 1 1 1 1 1 1 1 1 1 1 1 1 1 1 1 1 1 1 1 1 1 1 1 1 1 1 1 1 1 1 1 1 1 1 1 1 1 1 1 1 1 1 1 1 1 1 1 1 1 1 1 1 1 1 1 1 1 1 1 1 1 1 1 1 1 1 1 1 1 1 1 1 1 1 1 1 1 1 1 1 1 1 1 1 1 1 1 1 1 1 1 1 1 1 1 1 1 1 1 1 1 1 1 1 1 1 1 1 1 1 1 1 1 1 1 1 1 1 1 1 1 1 1 1 1 1 1 1 1 1 1 1 1 1 1 1 1 1 1 1 1 1 1 1 1 1 1 1 1 1 1 1 1 1 1 1 1 1 1 1 1 1 1 1 1 1 1 1 1 1 1 1 1 1 1 1 1 1 1 1 1 1 1 1 1 1 1 1 1 1 1 1 1 1 1 1 1 1 1 1 1 1 1 1 1 1 1 1 1 1 1 1 1 1 1 1 1 1 1 1 1 1 1 1 1 1 1 1 1 1 1 1 1 1 1 1 1 1 1 1 1 1 1 1 1 1 1 1 1 1 1 1 1 1 1 1 1 1 1 1 1 1 1 1 1 1 1 1 1 1 1 1 1 1 1 1 1 1 1 1 1 1 1 1 1 1 1 1 1 1 1 1 1 1 1 1 1 1 1 1 1 1 1 1 1 1 1 1 1 1 1 1 1 1 1 1 1 1 1 1 1 1 1 1 1 1 1 1 1 1 1 1 1 1 1 1 1 1 1 1 1 1 1 1 1 1 1 1 1 1 1 1 1 1 1 1 1 1 1 1 1 1 1 1 1 1 1 1 1 1 1 1 1 1 1 1 1 1 1 1 1 1 1 1 1 1 1 1 1 1 1 1 1 1 1 1 1 1 1 1 1 1 1 1 1 1 1 1 1 1 1 1 1 1 1 1 1 1 1 1 1 1 1 1 1 1 1 1 1 1 1 1 1 1 1 1 1 1 1 1 1 1 1 1 1 1 1 1 1 1 1 1 1 1 1 1 1 1 1 1 1 1 1 1 1 1 1 1 1 1 1 1 1 1 1 1 1 1 1 1 1 1 1 1 1 1 1 1 1 1 1 1 1 1 1 1 1 1 1 1 1 1 1 1 1 1 1 1 1 1 1 1 1 1 1 1 1 1 1 1 1 1 1 1 1 1 1 1 1 1 1 1 1 1 1 1 1 1 1 1 1 1 1 1 1 1 1 1 1 1 1 1 1 1 1 1 1 1 1 1 1 1 1 1 1 1 1 1 1 1 1 1 1 1 1 1 1 1 1 1 1 1 1 1 1 1 1 1 1 1 1 1 1 1 1 1 1 1 1 1 1 1 1 1 1 1 1 1 1 1 1 1 1 1 1 1 1 1 1 1 1 1 1 1 1 1 1 1 1 1 1 1 1 1 1 1 1 1 1 1 1 1 1 1 1 1 1 1 1 1 1 1 1 1 1 1 1 1 1 1 1 1 1 1 1 1 1 1 1 1 1 1 1 1 1 1 1 1 1 1 1 1 1 1 1 1 1 1 1 1 1 1 1 1 1 1 1 1 1 1 1 1 1 1 1 1 1 1 1 1 1 1 1 1 1 1 1 1 1 1 1 1 1 1 1 1 1 1 1 1 1 1 1 1 1 1 1 1 1 1 1 1 1 1 1 1 1 1 1 1 1 1 1 1 1 1 1 1 1 1 1 1 1 1 1 1 1 1 1 1 1 1 1 1 1 1 1 1 1 1 1 1 1 1 1 1 1 1 1 1 1 1 1 1 1 1 1 1 1 1 1 1 1 1 1 1 1 1 1 1 1 1 1 1 1 1 1 1 1 1 1 1 1 1 1 1 1 1 1 1 1 1 1 1 1 1 1 1 1 1 1 1 1 1 1 1 1 1 1 1 1 1 1 1 1 1 1 1 1 1 1 1 1 1 1 1 1 1 1 1 1 1 1 1 1 1 1 1 1 1 1 1 1 1 1 1 1 1 1 1 1 1 1 1 1 1 1 1 1 1 1 1 1 1 1 1 1 1 1 1 1 1 1 1 1 1 1 1 1 1 1 1 1 1 1 1 1 1 1 1 1 1 1 1 1 1 1 1 1 1 1 1 1 1 1 1 1 1 1 1 1 1 1 1 1 1 1 1 1 1 1 1 1 1 1 1 1 1 1 1 1 1 1 1 1 1 1 1 1 1 1 1 1 1 1 1 1 1 1 1 1 1 1 1 1 1 1 1 1 1 1 1 1 1 1 1 1 1 1 1 1 1 1 1 1 1 1 1 1 1 1 1 1 1 1 1 1 1 1 1 1 1 1 1 1 1 1 1 1 1 1 1 1 1 1 1 1 1 1 1 1 1 1 1 1 1 1 1 1 1 1 1 1 1 1 1 1 1 1 1 1 1 1 1 1 1 1 1 1 1 1 1 1 1 1 1 1 1 1 1 1 1 1 1 1 1 1 1 1 1 1 1 1 1 1 1 1 1 1 1 1 1 1 1 1 1 1 1 1 1 1 1 1 1 1 1 1 1 1 1 1 1 1 1 1 1 1 1 1 1 1 1 1 1 1 1 1 1 1 1 1 1 1 1 1 1 1 1 1 1 1 1 1 1 1 1 1 1 1 1 1 1 1 1 1 1 1 1 1 1 1 1 1 1 1 1 1 1 1 1 1 1 1 1 1 1 1 1 1 1 1 1 1 1 1 1 1 1 1 1 1 1 1 1 1 1 1 1 1 1 1 1 1 1 1 1 1 1 1 1 1 1 1 1 1 1 1 1 1 1 1 1 1 1 1 1 1 1 1 1 1 1 1 1 1 1 1 1 1 1 1 1 1 1 1 1 1 1 1 1 1 1 1 1 1 1 1 1 1 1 1 1 1 1 1 1 1 1 1 1 1 1 1 1 1 1 1 1 1 1 1 1 1 1 1 1 1 1 1 1 1 1 1 1 1 1 1 1 1 1 1 1 1 1 1 1 1 1 1 1 1 1 1 1 1 1 1 1 1 1 1 1 1 1 1 1 1 1 1 1 1 1 1 1 1 1 1 1 1 1 1 1 1 1 1 1 1 1 1 1 1 1 1 1 1 1 1 1 1 1 1 1 1 1 1 1 1 1 1 1 1 1 1 1 1 1 1 1 1 1 1 1 1 1 1 1 1 1 1 1 1 1 1 1 1 1 1 1 1 1 1 1 1 1 1 1 1 1 1 1 1 1 1 1 1 1 1 1 1 1 1 1 1 1 1 1 1 1 1 1 1 1 1 1 1 1 1 1 1 1 1 1 1 1 1 1 1 1 1 1 1 1 1 1 1 1 1 1 1 1 1 1 1 1 1 1 1 1 1 1 1 1 1 1 1 1 1 1 1 1 1 1 1 1 1 1 1 1 1 1 1 1 1 1 1 1 1 1 1 1 1 1 1 1 1 1 1 1 1 1 1 1 1 1 1 1 1 1 1 1 1 1 1 1 1 1 1 1 1 1 1 1 1 1 1 1 1 1 1 1 1 1 1 1 1 1 1 1 5 5 5 5 5 5 5 5 5 5 5 5 5 5 5 5 5 5 5 5 5 5 5 5 5 5 5 5 5 5 5 5 5 5 5 5 5 5 5 5 5 5 5 5 5 5 5 5 5 5 5 5 5 5 5 5 5 5 5 5 5 5 5 5 5 5 5 5 5 5 5 5 5 5 5 5 5 5 5 5 5 5 5 5 5 5 5 5 5 5 5 5 5 5 5 5 5 5 5 5 5 5 5 5 5 5 5 5 5 5 5 5 5 5 5 5 5 5 5 5 5 5 5 5 5 5 4 4 4 4 4 4 4 4 4 4 4 4 4 4 4 4 4 4 4 4 4 4 4 4 4 4 4 4 4 4 4 4 4 4 2 2 2 2 2 2 2 2 2 3 3 3 3 3 3 3 3 3 4 4 4 4 4 4 4 4 4 4 4 4 4 4 4 4 4 4 4 4 4 4 4 4 4 4 4 4 4 4 4 4 4 4 
</DataArray>
<DataArray type="Float64" Name="u" NumberOfComponents="1" format="ascii">
1.7815489085923080e+00 2.0556962053752255e+00 5.6800261780076844e-01 1.8225309228287756e+00 2.7329995227122556e-02 5.8282508405960431e-01 9.8702451398649624e-02 1.7348068313689155e-01 1.7867885942204933e+00 2.7381142696979721e-02 1.0300559574700052e+00 1.7711582551170973e-01 9.6010123962754101e-02 2.9335558726587957e-01 1.3349592593266327e-01 3.8623660014068535e-02 1.5212522707704967e+00 9.4411186786703327e-01 1.6362411950909004e+00 6.5882053941662411e-01 4.0322313907018237e-01 3.0038549117649232e-02 3.9851983547862724e-01 1.6909275007387030e+00 9.8945617221559434e-01 5.3077651738156706e-01 3.6104329044156735e-01 1.7153070075500119e+00 9.8849331280058683e-01 2.2542231042941149e-01 1.1665122754133024e+00 8.4824172191685965e-01 6.2909515260053217e-01 1.2368970403444079e-01 1.5300249659969389e+00 2.0418517120783022e-01 6.5459516413127783e-01 6.8389474175116982e-01 1.6448946358812471e+00 2.1357325341677589e+00 4.8817426972076264e-02 6.9445720787882503e-01 8.3745882777238878e-01 1.3610595380144475e+00 1.6306426013091885e-01 1.4455596710781768e+00 1.3095006802217998e-01 9.7972758394046655e-01 1.3860093683621173e+00 1.8240183837038275e+00 8.4192662551939423e-01 1.3759446469550460e+00 8.8949773310236957e-02 8.8679493223574557e-01 1.1124447415145302e+00 2.6327619544429803e-01 4.4800264762365216e-01 1.1433219465932538e+00 3.3579615475541602e-01 7.1454399056920678e-02 3.3721184650261560e-01 1.9062675790801058e+00 9.9250456538959653e-01 4.8490998056506440e-01 1.1753235485038944e+00 2.1534118094761762e-01 1.0577415067575129e+00 1.8619257855949127e+00 1.0457620072133433e+00 1.0646009154676206e+00 1.4010447945115736e+00 1.0241482567714963e+00 4.7336765953901752e-02 5.5215537401363912e-01 1.3858901271340146e-01 9.7438371382190719e-02 2.4182623853638707e-01 1.3220417729028386e-01 4.5575782380069610e-02 2.0955965090762900e+00 1.1659915135320640e+00 5.7699238483253357e-01 3.2094767328690976e-01 8.3569655270051224e-01 9.0997800516397054e-02 1.8416276236473341e+00 1.4712033922539169e+00 9.3891225237457332e-01 7.0432644528744626e-01 1.0970057200799819e+00 6.6009372798045407e-01 5.5279361496806168e-01 4.5965322026010397e-01 5.6244123147127523e-01 1.2663491815192094e+00 8.0656347071893797e-01 1.3133827017550401e+00 7.3665356714185393e-01 1.2385745789302069e+00 1.2055311442536620e-01 6.2341511102283453e-01 8.7294995779884044e-01 1.3991237504307341e-01 7.0260452373492188e-01 1.5641386057544633e+00 1.1526237457552149e-01 1.3086584980894894e-01 1.3495053765465315e-01 7.1941940866749632e-01 2.3066557395523152e-01 9.8339921697554833e-01 7.7162319497226584e-01 3.5336380956991797e-01 8.2703861310628413e-01 1.2924773501949893e+00 6.0595148475401373e-01 1.0746801325892976e+00 1.8168667075642969e-01 3.7589757215252229e-01 6.1121997020099642e-02 8.3652261283468865e-01 1.7460300403926543e-01 2.8148246317067305e-01 1.2675531514973302e+00 2.2192969249383943e+00 1.2753263457142909e+00 3.7205416589223472e-01 3.9213847252172929e-01 1.8594543647584424e-01 1.2848593121582219e+00 1.2479382055180070e+00 3.8701310837629876e-01 3.1561133843027567e-01 1.2567015253349236e+00 1.0288020883424025e+00 1.3392404751201599e+00 5.3821280244601000e-01 5.2874123790191185e-01 3.7564952366442950e-01 1.2352849801347552e+00 1.1014509375002752e+00 5.1931848458273544e-01 7.4243647292629800e-01 6.5833595798207156e-01 4.0985116179360892e-01 1.2326842746935920e+00 1.3415586719658932e+00 1.7285550565971197e-01 4.2508249695261441e-01 2.7241941769397177e-01 5.2770085269822031e-01 1.2696040426182758e+00 1.1797720190238730e+00 1.8947373571488915e+00 1.8931160578173678e-01 8.2207403499467846e-01 1.7806670549868509e-01 3.7127066430588707e-01 1.6851231528663670e+00 1.3265792129204899e+00 1.8999316171952274e+00 5.8966075712092891e-01 1.2290338497012094e+00 1.0945354873977091e+00 5.0337473767455521e-01 6.3925015227952731e-01 1.6234706664741152e+00 2.5967058039157598e-01 1.1319806188712076e+00 1.8295981928088628e-01 9.7903609920203971e-01 1.4049916606784776e-01 2.8393712481230649e-01 8.8980144163729724e-01 4.3445578989768607e-01 1.2997499640618897e+00 9.5407765488635810e-01 6.7414472993509311e-01 1.0782691933458735e+00 6.0006299859363232e-01 9.1349392375105809e-01 6.8426647227171622e-01 7.8500939297795047e-01 8.0645177986935879e-01 6.7446189141233029e-02 8.7198983716280509e-01 7.5819604807588070e-01 1.3183304490241761e+00 5.9649632646417106e-01 6.8202097018045760e-01 8.9370008245321397e-01 7.2885958205188894e-01 1.0057263986543816e+00 6.0604465908775218e-01 2.0856577609826905e+00 1.0074394099121342e+00 3.8482857463805781e-01 2.8611912679467899e-01 6.7821763040098815e-01 9.9578827102777856e-01 3.6152631960384984e-01 3.8476743415754655e-01 7.4471258558715725e-01 6.8488852293519065e-01 3.4175454640520808e-01 4.7008230192703299e-01 1.1392926311926990e+00 6.0652387990339551e-01 3.7003930996719092e-01 1.7425593865222715e+00 1.0899005422715029e+00 1.7717270410452071e-01 6.6175618548001824e-01 3.7986740417761383e-01 5.6729909366648401e-01 6.3956720456597116e-01 5.2423248956719914e-01 7.0458354172232229e-01 1.2446886261260786e+00 8.5561326144531535e-01 7.9125495085580838e-02 1.6254608487811756e-01 2.3694921042320249e-01 8.5492060042821316e-01 1.3215515180080839e+00 1.2574333906455235e+00 3.4432823638494586e-01 8.0529728066490835e-01 6.7930288835324792e-01 1.0873596858376104e+00 1.0440812665880870e+00 6.7265274314616519e-01 5.6558231212363652e-01 9.5043324084810632e-01 9.4739693048705687e-01 3.0241348946977398e-01 2.4550713508835167e-02 1.2451840043053557e+00 1.7597219622161892e-01 1.2455572834723669e-01 1.1342295272672387e+00 1.3759728394405328e+00 1.5522378687851903e+00 1.2814471356503025e+00 5.5519586887201033e-01 9.9403361478944297e-01 1.3802800004669316e+00 2.5438727537975803e-01 7.7279672072499928e-01 1.3212543927578773e+00 7.4719672800912007e-01 5.8111978830652200e-01 1.7526234861414330e-01 1.8949469198439988e+00 2.3388160803427488e-01 1.9559562892095400e-01 6.3244413018707180e-01 5.6196401934366191e-01 9.5057478335174483e-01 1.3396363388004282e+00 1.7005168122787424e+00 1.7203345192848174e+00 5.8829003746913133e-01 1.4958798609742561e+00 8.7321966963585362e-01 5.0172017551633830e-01 1.0213806323533148e+00 1.0840606927635152e+00 7.0070464173299996e-01 7.6221440666832896e-01 9.4831888347109061e-01 8.0405195247686323e-01 7.0318062099464185e-01 6.5403441172525922e-01 8.5448343941416671e-01 2.3300828598099205e-01 9.3223196122074969e-01 8.1758615178300986e-01 1.7726068023943879e-02 1.1045761345740207e-01 7.1883892977089947e-01 7.6312719541184604e-01 1.5511599772525830e+00 9.3746213936841261e-01 2.0326990026742084e-01 4.7778956988456867e-01 6.5028943257377581e-01 1.0135004775380039e+00 4.8493957180547775e-01 3.2635204769840859e-01 6.2566956475546620e-01 4.7285001072350819e-01 4.2031742000826322e-01 1.7616615336351349e+00 7.9564990531229074e-01 1.2890452929327405e+00 1.1725161040280581e+00 9.9902864150548787e-01 3.6368243715987725e-01 2.2382312112137964e-01 1.4132293861468503e+00 4.4478878985805959e-01 7.1994764004667511e-01 9.6703306489205687e-01 9.2937070244304143e-01 1.3821355188795041e+00 4.0851057762253118e-01 3.6146742770176449e-01 1.1258894849649648e+00 5.4107978783326061e-01 1.0042470192514354e+00 2.8117756195400390e-01 2.0912630881559852e-01 5.0970607250115973e-01 3.8044379491370461e-01 1.6141591120791923e+00 1.1624330640383547e+00 8.0201113165383142e-01 1.5337084478713898e+00 6.7985121853619171e-02 1.6794132692601282e+00 5.6425255701830390e-01 1.3405018085556697e+00 1.0697038751235057e+00 1.6614995448200729e+00 3.7460546958092944e-01 6.0049010107048817e-01 1.2549319066066515e+00 4.8554756807653998e-01 6.7876677579788969e-01 1.1501767871574591e+00 1.2506335199034289e+00 1.4630374209255708e+00 1.9572434316281426e+00 1.1159314752889113e+00 1.2322086382017887e+00 9.5441234902376926e-01 6.8709886623382543e-01 1.9964822881987987e+00 1.2702704678986312e+00 2.1578185817577804e+00 1.2745058400406521e+00 5.0835978770124990e-01 6.4809056916010532e-01 1.5229536041484431e+00 6.0856235292006011e-01 3.0640771401186727e-02 5.1213058268030487e-01 9.7317914568729713e-01 7.4786910691550945e-01 5.6418062226028942e-01 8.7275849363890079e-01 9.9058746632525174e-01 1.1029462117966666e+00 4.6207437719934769e-02 1.6008014868190759e-01 1.8288164969499703e+00 6.9110703050270395e-02 1.2419570859906397e+00 1.0957716006626991e-01 4.5688572981059022e-01 6.8820078157207998e-01 4.2608405481047246e-01 1.4637827593887345e+00 9.8683116545893013e-01 1.6899327348390274e+00 1.9571638909483537e+00 1.4217102569860498e+00 7.5111755513371192e-01 6.5920135131716062e-01 2.5643047649529366e-01 5.1458468189588569e-01 9.8510166709459690e-01 3.0165329829592180e-01 1.2711048192889712e-01 6.5996202439245155e-01 9.5110341404992871e-01 6.3646730660468165e-01 1.9872159694091081e+00 7.7107501201721895e-01 1.5046075493676081e-01 1.0748869719865031e+00 6.5878752889410475e-01 9.2272583512796147e-01 4.7201742980822148e-01 9.5354169580639159e-01 1.1732238616786478e-01 1.1924589657025426e+00 9.2689023121685787e-01 9.5001843973319719e-02 7.6294565842386719e-01 3.0825250551178029e-01 1.0130210042142000e+00 5.9901496536224796e-01 1.0680836725728247e+00 7.0437505290752922e-01 7.9866900887658820e-01 6.7546963961351758e-01 1.5529407751683242e+00 5.7196292258978831e-01 8.2939743834805268e-01 8.9325771677782928e-01 4.9330293360619715e-01 7.5396498829412684e-01 1.1262630395619790e+00 1.6949572056418296e+00 1.3021884107447168e+00 1.9107741440153987e+00 1.2931114952409561e-01 4.0892546211318170e-01 2.3905704722513077e-01 2.7482687139070644e-01 7.4408748786689993e-01 1.0919154270811111e+00 9.5681534097149923e-01 2.8215196378570817e-01 1.1817214291867728e+00 7.8144590851714146e-01 2.4117600361960415e-01 9.8515830052016140e-02 1.3211717353876664e+00 3.2310557597915501e-01 9.1571046015365454e-01 5.2240208612212025e-01 1.6189155316599106e+00 8.7783877790720133e-01 4.1673833494233309e-01 9.4288869328185987e-01 7.1483162516620002e-01 8.3028909778129667e-01 5.7186205356231323e-01 2.3308179801716662e+00 1.5838042868506945e+00 1.8368201651027420e+00 7.6131261012888807e-01 5.4757048122424254e-02 2.0064307833379416e+00 3.5725378870053909e-01 1.0025445056738764e+00 5.8400335756844601e-01 1.4344953898168780e+00 6.1204106954714155e-01 1.7882827595663997e-01 5.8688180639849996e-01 5.5709099085401714e-01 9.4912983619302393e-01 1.4542084477882637e+00 6.6236084194569278e-01 9.0196179661473930e-01 2.3245914564649111e+00 5.7739247879730116e-01 7.0318426621071306e-01 1.3578123800430755e+00 1.7533490830831419e-01 9.4087155366988684e-01 2.0918355232883048e+00 4.0628615960692566e-01 8.9831384771632716e-01 4.5892854308498121e-01 1.6262287166794804e+00 2.0115820951257968e+00 1.7100466679673798e+00 1.7832519637183291e+00 5.5045915578702242e-01 5.2290421712219176e-02 2.6992122571078658e-01 2.2607101703935770e+00 3.6205199872427535e-01 5.1174443607130249e-01 8.3011378743556796e-01 3.5047628070249104e-01 8.3195672859126457e-01 1.6894086894857059e+00 2.4931383454680989e-01 2.7221734857354823e-01 1.6964900208812692e+00 1.8083181462042859e+00 5.6609974164810251e-01 1.4968313862780058e+00 1.0391945884004348e+00 8.1136147171951345e-01 1.2619492947489208e-01 2.1511297835938747e-01 5.2769616480033610e-01 1.8447645210512251e-01 2.4287385792569299e-01 4.1137624767927872e-02 1.2358446629171826e+00 9.0799354547447331e-01 3.2666447275772187e-01 8.6675743048958742e-01 6.9962504545608351e-01 2.8072466600157953e-01 1.4888638920901265e+00 1.3308910064515023e+00 8.3200647022935681e-01 6.8745736281007264e-01 3.1201686186443850e-01 8.8486062882369598e-01 1.1042586381996853e+00 1.3972911591529966e-01 1.0500292583313002e+00 1.5901493605569521e+00 7.1115805564365520e-01 6.5832293982679313e-01 8.0978760576183406e-01 1.1332513908525890e+00 8.1117523391619228e-01 2.5996817661499916e-01 1.1424215042685733e-01 7.5076199912325770e-01 1.9720229778900003e-01 1.7772496032348184e+00 1.3120895084667965e+00 4.7099430380480971e-02 1.2581886519985082e+00 5.4070396454340652e-01 8.5088896136010062e-01 6.4585963861342732e-01 1.4040428482881162e+00 9.9595240590776901e-01 1.7061514685433483e+00 9.3968733588888598e-01 7.5944439382457402e-02 1.6925430780668893e-01 1.2246030188450696e+00 1.2447698282408028e+00 1.0004582039225998e+00 2.8812109001260777e-01 4.9598321918797916e-01 8.3343693532732632e-01 4.4247595620757779e-01 9.6334155470081639e-01 1.1509289370087430e-01 6.8520783329979329e-01 1.1685892622428831e+00 6.0512803502287360e-01 7.0631888955089550e-01 2.2626001749380056e-01 1.3084679525371983e+00 1.5228320340387880e-01 6.2807385496303447e-01 2.2243102282786886e-01 5.0016353107990774e-01 4.0030721402369018e-01 7.5382312835767684e-01 2.2792820455465383e+00 7.2665044968275527e-02 2.6611642304682254e-01 6.7178553193099622e-01 1.0906549774287297e+00 1.0050028119302670e+00 3.0437120928712369e-01 1.1839364278941343e-01 9.7442147747291208e-01 6.8076948442797391e-01 1.2024803534500912e+00 1.6152023239858804e+00 5.5746364709583474e-01 4.2455381257343638e-01 8.8899681013434706e-01 1.8227802513251601e+00 1.2336262199857395e+00 6.0535216243033885e-01 6.4435291967522468e-01 1.3349815969374523e+00 1.1566840929449711e+00 1.8891903567517161e+00 7.4327030495606916e-01 4.0129573419299808e-01 2.2553720408768267e+00 2.6608913784949484e-01 7.7407856430654354e-01 6.6397179746634305e-01 7.3775086681752833e-01 1.9220750353428473e+00 1.4879635865007135e+00 5.8567296966010540e-01 6.7570635215695818e-01 1.6380618558412154e+00 1.8145115788748536e+00 9.6530516293620949e-01 1.6580123189809137e+00 6.3783703878037090e-01 6.0514226932709181e-01 6.4797872099532561e-01 9.7680646517150649e-01 6.3582370573264768e-01 1.2695988717325313e-01 3.1630300425859692e-01 1.4896372579966930e+00 5.8344553996330306e-01 1.0065121081556088e+00 6.5705237913939474e-01 1.8117407127983696e+00 1.3354459944271455e+00 3.4203772415860606e-01 1.6958594235006252e+00 4.1122242736523229e-01 9.7992285500742093e-01 1.4986168779251914e+00 7.4746711637930985e-01 2.2867597077636077e+00 1.2478290792812965e-01 1.1663876731151057e+00 1.3762561234296697e+00 5.1306595346207484e-01 7.2853369850218130e-01 1.2682484303671675e+00 1.1565402165269010e+00 5.8269169783124697e-01 1.7013382842798650e+00 1.3999837678822873e+00 6.5174211973172902e-01 9.3101294611066132e-01 5.6849428146368042e-01 1.6575810071777752e+00 4.0790432001442811e-01 9.8667574861567386e-01 5.1248631943381917e-01 9.8604697163007271e-01 7.3498544671592403e-01 1.2637236855105094e+00 4.8634694516813276e-01 4.0990133169942111e-01 1.6130455363690634e+00 7.5916153724932101e-01 1.3960476351239772e+00 8.6139081704672660e-01 3.5041328599103899e-01 1.3063461348599557e+00 1.8206458568709953e+00 4.6909252745248542e-01 3.2316856394661914e-01 1.5650041169925295e+00 7.1894239990576936e-01 7.0195561657328032e-01 6.0237111326446469e-01 6.0793146214563082e-02 1.6123956203945191e+00 1.4803632221833629e+00 7.3730609235451228e-01 1.4217251165057973e-01 6.1029208412822311e-01 1.6251472030166894e+00 1.4477663543385424e-01 8.6765831337917321e-01 1.3699504028362695e+00 8.8588028500525029e-01 1.5680464284198372e+00 7.4436852044151403e-01 1.0461410056399725e+00 2.2026178363764846e+00 2.5073804977193981e-01 1.1505751995466500e+00 1.3171967987893574e+00 7.7115504237