<?xml version="1.0"?>
<VTKFile type="UnstructuredGrid"  byte_order="LittleEndian">
<UnstructuredGrid>
<Piece NumberOfPoints="1503" NumberOfCells=" 3008">
<Points>
<DataArray type="Float32" NumberOfComponents="3" format="ascii">
20.578943 2.256191 0.000000 20.478388 2.256191 0.000000 20.622366 2.186859 0.000000 20.678562 2.269883 0.000000 20.523056 2.173980 0.000000 20.467171 2.091770 0.000000 20.411285 2.009560 0.000000 20.423943 2.171329 0.000000 20.378769 2.269883 0.000000 20.666105 2.127579 0.000000 20.567638 2.097888 0.000000 20.722399 2.211844 0.000000 20.775387 2.297012 0.000000 20.369497 2.086467 0.000000 20.509977 2.020813 0.000000 20.456715 1.925892 0.000000 20.315052 2.001605 0.000000 20.355398 1.927350 0.000000 19.470150 0.979195 0.000000 19.728550 1.155937 0.000000 20.131855 1.598510 0.000000 20.097273 1.662157 0.000000 20.151716 1.747019 0.000000 20.206161 1.831881 0.000000 19.617739 1.078604 0.000000 20.260607 1.916743 0.000000 20.299513 1.845140 0.000000 20.187740 1.680720 0.000000 20.075968 1.516300 0.000000 19.843908 1.325207 0.000000 20.016949 1.579111 0.000000 20.243626 1.762930 0.000000 19.537756 1.037080 0.000000 19.959269 1.494476 0.000000 20.318720 2.187682 0.000000 20.281942 2.297012 0.000000 20.744593 2.101504 0.000000 20.616425 2.041508 0.000000 20.803099 2.192296 0.000000 20.893745 2.231670 0.000000 20.867619 2.337074 0.000000 20.270050 2.099700 0.000000 20.556822 1.958146 0.000000 20.510448 1.871173 0.000000 20.397589 1.854766 0.000000 20.198620 2.023280 0.000000 19.431278 1.049968 0.000000 19.433472 0.890446 0.000000 19.509022 0.908422 0.000000 19.374569 0.966832 0.000000 19.852425 1.187460 0.000000 19.740652 1.023040 0.000000 19.649891 1.201454 0.000000 19.726458 1.248787 0.000000 19.796539 1.105250 0.000000 20.229006 1.605696 0.000000 20.172810 1.522673 0.000000 20.052614 1.759335 0.000000 19.958420 1.694477 0.000000 20.078520 1.858879 0.000000 20.161331 1.929518 0.000000 19.581221 1.147422 0.000000 19.613190 0.986667 0.000000 20.341394 1.771743 0.000000 20.285200 1.688719 0.000000 20.020082 1.434090 0.000000 20.116615 1.439649 0.000000 19.762026 1.365828 0.000000 19.908310 1.269670 0.000000 19.964197 1.351880 0.000000 19.835176 1.418970 0.000000 19.943895 1.589152 0.000000 19.487989 1.133104 0.000000 19.838322 1.530076 0.000000 19.357924 0.872469 0.000000 19.416887 0.814342 0.000000 19.684767 0.940830 0.000000 19.201351 0.543959 0.000000 19.237823 0.708068 0.000000 19.313486 0.708333 0.000000 19.117725 0.543666 0.000000 18.977592 0.384877 0.000000 19.145285 0.461773 0.000000 19.034304 0.468014 0.000000 19.147724 0.634286 0.000000 19.261147 0.800559 0.000000 20.225231 2.213876 0.000000 20.189713 2.337074 0.000000 20.835081 2.071442 0.000000 20.730495 1.992568 0.000000 20.614174 1.888579 0.000000 20.923901 2.110023 0.000000 20.978188 2.283020 0.000000 21.037861 2.175740 0.000000 20.953535 2.389320 0.000000 20.168520 2.130740 0.000000 20.544138 1.750495 0.000000 20.447540 1.788713 0.000000 20.111811 2.047603 0.000000 19.407923 1.190354 0.000000 19.356895 1.075706 0.000000 19.497829 0.817397 0.000000 19.628880 0.858620 0.000000 19.240398 0.944628 0.000000 19.296240 1.026536 0.000000 19.891838 1.107556 0.000000 19.948032 1.190579 0.000000 19.779449 0.941509 0.000000 19.835644 1.024533 0.000000 19.544701 1.216240 0.000000 19.601412 1.299377 0.000000 19.658123 1.382513 0.000000 20.338257 1.619280 0.000000 20.265285 1.538617 0.000000 20.228973 1.449847 0.000000 19.941677 1.798195 0.000000 19.998388 1.881331 0.000000 19.884966 1.715058 0.000000 20.055099 1.964467 0.000000 20.378641 1.707149 0.000000 20.060421 1.356626 0.000000 20.151930 1.370084 0.000000 19.714834 1.465649 0.000000 20.004227 1.273603 0.000000 19.828255 1.631922 0.000000 19.750740 1.572268 0.000000 19.400303 0.738239 0.000000 19.723255 0.858486 0.000000 19.291584 0.568057 0.000000 19.267111 0.478858 0.000000 19.128714 0.780811 0.000000 19.382471 0.648127 0.000000 19.017029 0.616993 0.000000 19.033150 0.297399 0.000000 18.905346 0.453176 0.000000 18.849503 0.371268 0.000000 18.920881 0.301741 0.000000 19.089216 0.379586 0.000000 19.182865 0.397874 0.000000 18.961187 0.535085 0.000000 19.072872 0.698902 0.000000 19.184555 0.862719 0.000000 18.570293 -0.038275 0.000000 18.637327 -0.113940 0.000000 19.572994 0.776410 0.000000 18.750748 0.052332 0.000000 18.864170 0.218605 0.000000 18.626135 0.043633 0.000000 18.793661 0.289359 0.000000 18.681978 0.125542 0.000000 18.694038 -0.030804 0.000000 18.807459 0.135469 0.000000 18.737820 0.207451 0.000000 20.129232 2.254698 0.000000 20.103796 2.389320 0.000000 20.872023 1.931849 0.000000 20.764050 1.816291 0.000000 20.659811 1.704730 0.000000 21.039505 2.018634 0.000000 21.069595 2.352190 0.000000 21.113173 2.237010 0.000000 21.133705 2.096566 0.000000 21.031536 2.452780 0.000000 20.078028 2.173256 0.000000 20.455313 1.612754 0.000000 20.553022 1.656700 0.000000 20.008272 2.089948 0.000000 19.333899 1.215493 0.000000 19.403471 1.266196 0.000000 19.282511 1.101445 0.000000 19.517109 0.694200 0.000000 19.667061 0.775463 0.000000 19.222031 1.019070 0.000000 19.161551 0.936695 0.000000 20.010408 1.110982 0.000000 19.925217 1.033020 0.000000 20.038572 1.201552 0.000000 19.901125 0.941549 0.000000 19.811861 0.864487 0.000000 19.519608 1.354171 0.000000 19.631292 1.517988 0.000000 19.524431 1.430946 0.000000 20.401999 1.528084 0.000000 20.348684 1.443414 0.000000 20.247644 1.342295 0.000000 19.887312 1.925197 0.000000 19.854660 1.845622 0.000000 19.966345 2.009439 0.000000 19.766352 1.760447 0.000000 19.742975 1.681805 0.000000 20.119692 1.280415 0.000000 19.645391 1.595696 0.000000 19.461222 0.611990 0.000000 19.755182 0.780221 0.000000 19.405336 0.529780 0.000000 19.349451 0.447570 0.000000 19.293564 0.365360 0.000000 19.101070 0.854319 0.000000 19.040590 0.771944 0.000000 18.955563 0.704497 0.000000 18.919630 0.607194 0.000000 19.151751 0.309588 0.000000 18.977081 0.215212 0.000000 19.074148 0.227691 0.000000 18.840740 0.536014 0.000000 18.798670 0.442443 0.000000 18.725916 0.367532 0.000000 19.237679 0.283150 0.000000 18.496269 0.030567 0.000000 18.696745 -0.195722 0.000000 18.752811 -0.113535 0.000000 19.610865 0.692439 0.000000 18.864946 0.050839 0.000000 18.808880 -0.031348 0.000000 18.921015 0.133025 0.000000 18.556749 0.112942 0.000000 18.677710 0.277693 0.000000 18.611094 0.199049 0.000000 20.043516 2.307271 0.000000 20.025793 2.452780 0.000000 19.968300 2.368464 0.000000 20.998957 1.807243 0.000000 20.881107 1.701413 0.000000 20.763258 1.595583 0.000000 20.605846 1.518835 0.000000 21.220282 1.953920 0.000000 21.172970 1.816250 0.000000 21.207064 2.321687 0.000000 21.137125 2.424497 0.000000 21.227905 2.174498 0.000000 21.345245 2.057226 0.000000 21.100170 2.526269 0.000000 19.983234 2.225222 0.000000 20.490816 1.435776 0.000000 19.922955 2.143173 0.000000 19.320152 1.322681 0.000000 19.259872 1.240632 0.000000 19.380432 1.404730 0.000000 19.199591 1.158583 0.000000 19.554670 0.609416 0.000000 19.698505 0.695955 0.000000 19.139311 1.076534 0.000000 19.079031 0.994485 0.000000 20.105461 1.064295 0.000000 20.055016 0.986070 0.000000 20.004572 0.907844 0.000000 20.167034 1.151984 0.000000 19.923203 0.837069 0.000000 19.845442 0.769432 0.000000 19.500994 1.568829 0.000000 19.440712 1.486780 0.000000 20.357983 1.310259 0.000000 20.228609 1.239672 0.000000 19.862675 2.061124 0.000000 19.802395 1.979075 0.000000 19.742115 1.897025 0.000000 19.681833 1.814976 0.000000 19.621553 1.732927 0.000000 19.561274 1.650878 0.000000 19.498476 0.526393 0.000000 19.768618 0.678821 0.000000 19.442282 0.443369 0.000000 19.386087 0.360346 0.000000 19.329893 0.277323 0.000000 19.018751 0.912435 0.000000 18.958471 0.830386 0.000000 18.898190 0.748337 0.000000 18.818409 0.682153 0.000000 18.777630 0.584239 0.000000 19.181793 0.200940 0.000000 19.036390 0.140318 0.000000 19.125906 0.118730 0.000000 18.703421 0.513522 0.000000 18.657068 0.420140 0.000000 18.588432 0.344890 0.000000 19.273699 0.194299 0.000000 18.415949 0.091944 0.000000 18.747992 -0.282856 0.000000 18.805672 -0.198222 0.000000 18.856710 -0.112674 0.000000 19.641827 0.611689 0.000000 18.965429 0.057509 0.000000 18.921032 -0.028952 0.000000 18.473442 0.176259 0.000000 18.536509 0.256042 0.000000 21.326666 2.275902 0.000000 19.238497 1.381441 0.000000 19.902599 2.296731 0.000000 19.897928 2.445711 0.000000 19.957159 2.526269 0.000000 19.838697 2.365153 0.000000 20.963972 1.584391 0.000000 21.121305 1.665921 0.000000 20.860769 1.415896 0.000000 20.675621 1.350042 0.000000 21.347008 1.846493 0.000000 21.360704 1.582777 0.000000 21.263178 2.401183 0.000000 21.207314 2.511422 0.000000 21.434387 2.192475 0.000000 21.480925 1.971498 0.000000 21.158159 2.608419 0.000000 19.853310 2.199833 0.000000 20.505426 1.328726 0.000000 19.299059 1.463852 0.000000 19.177937 1.299031 0.000000 19.359619 1.546263 0.000000 19.117374 1.216620 0.000000 19.585148 0.527423 0.000000 19.715630 0.593653 0.000000 19.056812 1.134209 0.000000 18.996252 1.051799 0.000000 20.219826 1.008123 0.000000 20.129030 0.867294 0.000000 20.000010 0.761668 0.000000 20.360504 1.190335 0.000000 20.359022 1.070685 0.000000 19.882244 0.665257 0.000000 19.420181 1.628673 0.000000 19.738321 2.031202 0.000000 19.783548 2.123137 0.000000 19.662426 1.958316 0.000000 19.601864 1.875905 0.000000 19.541304 1.793494 0.000000 19.480742 1.711084 0.000000 19.528471 0.443156 0.000000 19.833328 0.586619 0.000000 19.471792 0.358890 0.000000 19.415115 0.274624 0.000000 19.347486 0.205941 0.000000 18.935690 0.969388 0.000000 18.875130 0.886977 0.000000 18.814568 0.804567 0.000000 18.693445 0.639745 0.000000 18.754007 0.722156 0.000000 19.217505 0.111276 0.000000 19.070021 0.036520 0.000000 19.161310 0.028253 0.000000 18.572323 0.474924 0.000000 18.632883 0.557335 0.000000 18.511761 0.392514 0.000000 19.301758 0.106092 0.000000 18.390638 0.227692 0.000000 18.330078 0.145282 0.000000 18.790590 -0.374530 0.000000 18.846476 -0.292320 0.000000 18.902363 -0.210110 0.000000 18.958248 -0.127900 0.000000 19.662642 0.50
[...]
<CellData Scalars="Label">
<DataArray type="Int32" Name="Label" format="ascii">
0 0 0 0 0 0 0 0 0 0 0 0 0 0 0 0 0 0 0 0 0 0 0 0 0 0 0 0 0 0 0 0 0 0 0 0 0 0 0 0 0 0 0 0 0 0 0 0 0 0 0 0 0 0 0 0 0 0 0 0 0 0 0 0 0 0 0 0 0 0 0 0 0 0 0 0 0 0 0 0 0 0 0 0 0 0 0 0 0 0 0 0 0 0 0 0 0 0 0 0 0 0 0 0 0 0 0 0 0 0 0 0 0 0 0 0 0 0 0 0 0 0 0 0 0 0 0 0 0 0 0 0 0 0 0 0 0 0 0 0 0 0 0 0 0 0 0 0 0 0 0 0 0 0 0 0 0 0 0 0 0 0 0 0 0 0 0 0 0 0 0 0 0 0 0 0 0 0 0 0 0 0 0 0 0 0 0 0 0 0 0 0 0 0 0 0 0 0 0 0 0 0 0 0 0 0 0 0 0 0 0 0 0 0 0 0 0 0 0 0 0 0 0 0 0 0 0 0 0 0 0 0 0 0 0 0 0 0 0 0 0 0 0 0 0 0 0 0 0 0 0 0 0 0 0 0 0 0 0 0 0 0 0 0 0 0 0 0 0 0 0 0 0 0 0 0 0 0 0 0 0 0 0 0 0 0 0 0 0 0 0 0 0 0 0 0 0 0 0 0 0 0 0 0 0 0 0 0 0 0 0 0 0 0 0 0 0 0 0 0 0 0 0 0 0 0 0 0 0 0 0 0 0 0 0 0 0 0 0 0 0 0 0 0 0 0 0 0 0 0 0 0 0 0 0 0 0 0 0 0 0 0 0 0 0 0 0 0 0 0 0 0 0 0 0 0 0 0 0 0 0 0 0 0 0 0 0 0 0 0 0 0 0 0 0 0 0 0 0 0 0 0 0 0 0 0 0 0 0 0 0 0 0 0 0 0 0 0 0 0 0 0 0 0 0 0 0 0 0 0 0 0 0 0 0 0 0 0 0 0 0 0 0 0 0 0 0 0 0 0 0 0 0 0 0 0 0 0 0 0 0 0 0 0 0 0 0 0 0 0 0 0 0 0 0 0 0 0 0 0 0 0 0 0 0 0 0 0 0 0 0 0 0 0 0 0 0 0 0 0 0 0 0 0 0 0 0 0 0 0 0 0 0 0 0 0 0 0 0 0 0 0 0 0 0 0 0 0 0 0 0 0 0 0 0 0 0 0 0 0 0 0 0 0 0 0 0 0 0 0 0 0 0 0 0 0 0 0 0 0 0 0 0 0 0 0 0 0 0 0 0 0 0 0 0 0 0 0 0 0 0 0 0 0 0 0 0 0 0 0 0 0 0 0 0 0 0 0 0 0 0 0 0 0 0 0 0 0 0 0 0 0 0 0 0 0 0 0 0 0 0 0 0 0 0 0 0 0 0 0 0 0 0 0 0 0 0 0 0 0 0 0 0 0 0 0 0 0 0 0 0 0 0 0 0 0 0 0 0 0 0 0 0 0 0 0 0 0 0 0 0 0 0 0 0 0 0 0 0 0 0 0 0 0 0 0 0 0 0 0 0 0 0 0 0 0 0 0 0 0 0 0 0 0 0 0 0 0 0 0 0 0 0 0 0 0 0 0 0 0 0 0 0 0 0 0 0 0 0 0 0 0 0 0 0 0 0 0 0 0 0 0 0 0 0 0 0 0 0 0 0 0 0 0 0 0 0 0 0 0 0 0 0 0 0 0 0 0 0 0 0 0 0 0 0 0 0 0 0 0 0 0 0 0 0 0 0 0 0 0 0 0 0 0 0 0 0 0 0 0 0 0 0 0 0 0 0 0 0 0 0 0 0 0 0 0 0 0 0 0 0 0 0 0 0 0 0 0 0 0 0 0 0 0 0 0 0 0 0 0 0 0 0 0 0 0 0 0 0 0 0 0 0 0 0 0 0 0 0 0 0 0 0 0 0 0 0 0 0 0 0 0 0 0 0 0 0 0 0 0 0 0 0 0 0 0 0 0 0 0 0 0 0 0 0 0 0 0 0 0 0 0 0 0 0 0 0 0 0 0 0 0 0 0 0 0 0 0 0 0 0 0 0 0 0 0 0 0 0 0 0 0 0 0 0 0 0 0 0 0 0 0 0 0 0 0 0 0 0 0 0 0 0 0 0 0 0 0 0 0 0 0 0 0 0 0 0 0 0 0 0 0 0 0 0 0 0 0 0 0 0 0 0 0 0 0 0 0 0 0 0 0 0 0 0 0 0 0 0 0 0 0 0 0 0 0 0 0 0 0 0 0 0 0 0 0 0 0 0 0 0 0 0 0 0 0 0 0 0 0 0 0 0 0 0 0 0 0 0 0 0 0 0 0 0 0 0 0 0 0 0 0 0 0 0 0 0 0 0 0 0 0 0 0 0 0 0 0 0 0 0 0 0 0 0 0 0 0 0 0 0 0 0 0 0 0 0 0 0 0 0 0 0 0 0 0 0 0 0 0 0 0 0 0 0 0 0 0 0 0 0 0 0 0 0 0 0 0 0 0 0 0 0 0 0 0 0 0 0 0 0 0 0 0 0 0 0 0 0 0 0 0 0 0 0 0 0 0 0 0 0 0 0 0 0 0 0 0 0 0 0 0 0 0 0 0 0 0 0 0 0 0 0 0 0 0 0 0 0 0 0 0 0 0 0 0 0 0 0 0 0 0 0 0 0 0 0 0 0 0 0 0 0 0 0 0 0 0 0 0 0 0 0 0 0 0 0 0 0 0 0 0 0 0 0 0 0 0 0 0 0 0 0 0 0 0 0 0 0 0 0 0 0 0 0 0 0 0 0 0 0 0 0 0 0 0 0 0 0 0 0 0 0 0 0 0 0 0 0 0 0 0 0 0 0 0 0 0 0 0 0 0 0 0 0 0 0 0 0 0 0 0 0 0 0 0 0 0 0 0 0 0 0 0 0 0 0 0 0 0 0 0 0 0 0 0 0 0 0 0 0 0 0 0 0 0 0 0 0 0 0 0 0 0 0 0 0 0 0 0 0 0 0 0 0 0 0 0 0 0 0 0 0 0 0 0 0 0 0 0 0 0 0 0 0 0 0 0 0 0 0 0 0 0 0 0 0 0 0 0 0 0 0 0 0 0 0 0 0 0 0 0 0 0 0 0 0 0 0 0 0 0 0 0 0 0 0 0 0 0 0 0 0 0 0 0 0 0 0 0 0 0 0 0 0 0 0 0 0 0 0 0 0 0 0 0 0 0 0 0 0 0 0 0 0 0 0 0 0 0 0 0 0 0 0 0 0 0 0 0 0 0 0 0 0 0 0 0 0 0 0 0 0 0 0 0 0 0 0 0 0 0 0 0 0 0 0 0 0 0 0 0 0 0 0 0 0 0 0 0 0 0 0 0 0 0 0 0 0 0 0 0 0 0 0 0 0 0 0 0 0 0 0 0 0 0 0 0 0 0 0 0 0 0 0 0 0 0 0 0 0 0 0 0 0 0 0 0 0 0 0 0 0 0 0 0 0 0 0 0 0 0 0 0 0 0 0 0 0 0 0 0 0 0 0 0 0 0 0 0 0 0 0 0 0 0 0 0 0 0 0 0 0 0 0 0 0 0 0 0 0 0 0 0 0 0 0 0 0 0 0 0 0 0 0 0 0 0 0 0 0 0 0 0 0 0 0 0 0 0 0 0 0 0 0 0 0 0 0 0 0 0 0 0 0 0 0 0 0 0 0 0 0 0 0 0 0 0 0 0 0 0 0 0 0 0 0 0 0 0 0 0 0 0 0 0 0 0 0 0 0 0 0 0 0 0 0 0 0 0 0 0 0 0 0 0 0 0 0 0 0 0 0 0 0 0 0 0 0 0 0 0 0 0 0 0 0 0 0 0 0 0 0 0 0 0 0 0 0 0 0 0 0 0 0 0 0 0 0 0 0 0 0 0 0 0 0 0 0 0 0 0 0 0 0 0 0 0 0 0 0 0 0 0 0 0 0 0 0 0 0 0 0 0 0 0 0 0 0 0 0 0 0 0 0 0 0 0 0 0 0 0 0 0 0 0 0 0 0 0 0 0 0 0 0 0 0 0 0 0 0 0 0 0 0 0 0 0 0 0 0 0 0 0 0 0 0 0 0 0 0 0 0 0 0 0 0 0 0 0 0 0 0 0 0 0 0 0 0 0 0 0 0 0 0 0 0 0 0 0 0 0 0 0 0 0 0 0 0 0 0 0 0 0 0 0 0 0 0 0 0 0 0 0 0 0 0 0 0 0 0 0 0 0 0 0 0 0 0 0 0 0 0 0 0 0 0 0 0 0 0 0 0 0 0 0 0 0 0 0 0 0 0 0 0 0 0 0 0 0 0 0 0 0 0 0 0 0 0 0 0 0 0 0 0 0 0 0 0 0 0 0 0 0 0 0 0 0 0 0 0 0 0 0 0 0 0 0 0 0 0 0 0 0 0 0 0 0 0 0 0 0 0 0 0 0 0 0 0 0 0 0 0 0 0 0 0 0 0 0 0 0 0 0 0 0 0 0 0 0 0 0 0 0 0 0 0 0 0 0 0 0 0 0 0 0 0 0 0 0 0 0 0 0 0 0 0 0 0 0 0 0 0 0 0 0 0 0 0 0 0 0 0 0 0 0 0 0 0 0 0 0 0 0 0 0 0 0 0 0 0 0 0 0 0 0 0 0 0 0 0 0 0 0 0 0 0 0 0 0 0 0 0 0 0 0 0 0 0 0 0 0 0 0 0 0 0 0 0 0 0 0 0 0 0 0 0 0 0 0 0 0 0 0 0 0 0 0 0 0 0 0 0 0 0 0 0 0 0 0 0 0 0 0 0 0 0 0 0 0 0 0 0 0 0 0 0 0 0 0 0 0 0 0 0 0 0 0 0 0 0 0 0 0 0 0 0 0 0 0 0 0 0 0 0 0 0 0 0 0 0 0 0 0 0 0 0 0 0 0 0 0 0 0 0 0 0 0 0 0 0 0 0 0 0 0 0 0 0 0 0 0 0 0 0 0 0 0 0 0 0 0 0 0 0 0 0 0 0 0 0 0 0 0 0 0 0 0 0 0 0 0 0 0 0 0 0 0 0 0 0 0 0 0 0 0 0 0 0 0 0 0 0 0 0 0 0 0 0 0 0 0 0 0 0 0 0 0 0 0 0 0 0 0 0 0 0 0 0 0 0 0 0 0 0 0 0 0 0 0 0 0 0 0 0 0 0 0 0 0 0 0 0 0 0 0 0 0 0 0 0 0 0 0 0 0 0 0 0 0 0 0 0 0 0 0 0 0 0 0 0 0 0 0 0 0 0 0 0 0 0 0 0 0 0 0 0 0 0 0 0 0 0 0 0 0 0 0 0 0 0 0 0 0 0 0 0 0 0 0 0 0 0 0 0 0 0 0 0 0 0 0 0 0 0 0 0 0 0 0 0 0 0 0 0 0 0 0 0 0 0 0 0 0 0 0 0 0 0 0 0 0 0 0 0 0 0 0 0 0 0 0 0 0 0 0 0 0 0 0 0 0 0 0 0 0 0 0 0 0 0 0 0 0 0 0 0 0 0 0 0 0 0 0 0 0 0 0 0 0 0 0 0 0 0 0 0 0 0 0 0 0 0 0 0 0 0 0 0 0 0 0 0 0 0 0 0 0 0 0 0 0 0 0 0 0 0 0 0 0 0 0 0 0 0 0 0 0 0 0 0 0 0 0 0 0 0 0 0 0 0 0 0 0 0 0 0 0 0 0 0 0 0 0 0 0 0 0 0 0 0 0 0 0 0 0 0 0 0 0 0 0 0 0 0 0 0 0 0 0 0 0 0 0 0 0 0 0 0 0 0 0 0 0 0 0 0 0 0 0 0 0 0 0 0 0 0 0 0 0 0 0 0 0 0 0 0 0 0 0 0 0 0 0 0 0 0 0 0 0 0 0 0 0 0 0 0 0 0 0 0 0 0 0 0 0 0 0 0 0 0 0 0 0 0 0 0 0 0 0 0 0 0 0 0 0 0 0 0 0 0 0 0 0 0 0 0 0 0 0 0 0 0 0 0 0 0 0 0 0 0 0 0 0 0 0 0 0 0 0 0 0 0 0 0 0 0 0 0 0 0 0 0 0 0 0 0 0 0 0 0 0 0 0 0 0 0 0 0 0 0 0 0 0 0 0 0 0 0 0 0 0 0 0 0 0 0 0 0 0 0 0 0 0 0 0 0 0 0 0 0 0 0 0 0 0 0 0 0 0 0 0 0 0 0 0 0 0 0 0 0 0 0 0 0 0 0 0 0 0 0 0 0 0 0 0 0 0 0 0 0 0 0 0 0 0 0 0 0 0 0 4 4 4 4 4 4 4 4 4 4 4 4 4 4 4 4 4 4 4 4 4 4 4 4 4 4 4 4 4 4 4 4 4 4 4 4 4 4 4 4 4 4 4 4 4 4 4 4 4 4 4 4 4 4 4 4 4 4 4 4 4 4 4 4 4 4 4 4 4 4 4 4 4 4 4 4 4 4 4 4 4 4 4 4 4 4 4 4 4 4 4 4 4 4 4 4 4 4 4 4 4 4 4 4 4 4 4 4 4 4 4 3 3 3 3 3 3 3 3 3 3 3 3 3 3 3 3 3 3 3 3 3 3 3 3 3 3 3 3 3 3 3 3 3 3 3 3 3 3 3 3 3 3 3 3 3 3 3 3 3 3 3 3 3 3 3 3 3 3 3 3 3 3 3 3 3 3 3 3 3 3 2 2 2 2 2 2 2 2 1 1 1 1 1 1 1 1 
</DataArray>
<DataArray type="Float64" Name="u" NumberOfComponents="1" format="ascii">
8.4693032307912809e-04 4.1349961157706483e-01 2.9037736656289437e-01 4.6321514182745832e-01 3.4740257551755027e-01 1.4807929908584072e-01 3.4007769211501115e-01 4.7868952038659518e-01 6.9318716468301766e-01 6.8947318188785167e-01 9.8155639910764991e-01 1.0413486868368209e+00 1.0910597906011219e+00 8.0671179780214408e-01 4.2580949490426556e-01 5.1813358594397818e-01 4.1924985923679892e-01 4.9691967644328694e-01 3.4944779295204176e-01 1.9861858532988214e-01 5.5965635239459144e-01 8.6497197020441163e-01 6.5977080874014882e-01 5.2661154011895561e-01 5.7757666558203802e-01 1.0970929671233343e+00 1.0499732049301738e+00 1.0315916913907810e+00 7.5792827958661635e-01 7.9904461921678016e-01 8.4865290441115127e-01 7.3602202069938083e-01 7.7503419261062945e-01 8.3428900954780938e-01 1.4765547633240144e+00 1.4058871117391751e+00 1.2491532068662621e+00 1.4117284914340504e+00 1.3338762417362675e+00 1.1029780945835848e+00 1.3473393813769734e+00 1.2992888263266151e+00 1.3298932635746774e+00 1.3457378491562797e+00 1.4003669896037754e+00 1.4969800984042010e+00 1.4306827278731178e+00 1.0789343178827038e+00 8.5651770184570308e-01 1.2800096808584009e+00 1.1818197442282810e+00 1.2535554412351377e+00 1.1369016897321111e+00 9.8078849655625377e-01 1.2238282601627111e+00 9.3937654688602223e-01 1.1317455627470885e+00 1.1704145268911743e+00 9.0029862030613406e-01 1.1287659116926216e+00 1.1668669894124606e+00 1.1964000398802606e+00 1.3036404933943138e+00 1.2298856157557818e+00 1.4308019403079970e+00 1.2232912995422605e+00 1.0880327567322667e+00 1.1312065473642428e+00 1.3271505460112163e+00 1.3602364494264485e+00 1.4032408291830090e+00 1.3581435325206408e+00 1.3718370993044378e+00 1.3385122883953007e+00 1.2028122123330118e+00 8.8331600250953923e-01 1.2062852935700215e+00 1.2110691515787864e+00 1.2279489735003382e+00 1.2281089879682154e+00 1.2683746803368741e+00 1.2673885947651340e+00 1.3181284295965496e+00 1.4452677422929596e+00 1.2653634924151176e+00 1.3585586079479088e+00 1.1844146759292311e+00 1.2905520522452010e+00 1.2755754893751954e+00 1.3189415553693600e+00 1.3521191272382032e+00 1.3349109926951446e+00 1.3166061751551643e+00 1.3573254177866505e+00 1.3732886177743917e+00 1.3561003352918364e+00 1.3934746385891232e+00 1.4405727673680377e+00 1.4344296173237625e+00 1.4188808000242925e+00 1.4164428219076248e+00 1.3917001232720612e+00 1.1279850294894944e+00 1.1812441114582293e+00 1.1802597914054431e+00 1.2498525933828548e+00 1.1371509773524284e+00 1.1773874958583916e+00 1.2283694384066610e+00 1.2686284830738241e+00 1.3103402300546250e+00 1.3108600038845113e+00 1.3880290442282814e+00 1.2903433035282572e+00 1.1272079666603254e+00 1.1723473641111601e+00 1.0763912772853390e+00 2.1374806470247287e-01 1.4595840890623673e+00 1.4517922443655227e+00 1.4658168741249575e+00 1.4416606960871650e+00 1.4652671196552414e+00 1.1212995168532678e+00 1.2066486346206333e+00 1.1235845148198287e+00 1.1580200780484864e+00 1.0454968193844167e+00 8.9373371984103167e-01 9.0544335089193417e-01 1.2114854210680539e+00 1.2873426499899661e+00 1.0504637905767531e+00 6.5099995131007793e-01 1.1879072540043913e+00 1.2650735019821120e+00 1.2542299044421932e+00 1.3894096433983192e+00 1.2178767501248129e+00 1.2606716919107406e+00 1.1929541356058850e+00 1.2635702473081292e+00 1.1348208557634978e+00 1.2845683566415649e+00 1.3127560667841833e+00 1.3670379274783384e+00 1.3684026602037143e+00 1.4051261337406695e+00 1.4005965172906252e+00 1.3508568777844532e+00 1.3898232508546962e+00 1.4208679866228295e+00 1.4234146417639368e+00 1.4049024759548319e+00 1.1093612116050069e+00 8.8424375617650197e-01 7.7827959542438063e-01 9.2836336971501343e-01 1.0642711321321112e+00 1.0480625581431475e+00 1.4488254163822392e+00 1.4520017242054863e+00 1.4570301549485372e+00 1.2723543236897190e+00 1.2495626540102311e+00 1.2328324661155934e+00 1.1886875110873674e+00 1.2937279886611561e+00 1.2816870826733522e+00 1.3304518978544924e+00 1.4332724564512471e+00 1.4219491143457847e+00 1.3936521882963377e+00 1.4058309722492413e+00 3.6232091175786309e-03 1.5565511919416120e+00 3.4568852017399440e-03 6.2802206906314573e-01 2.9379010082817869e-01 3.3247586125933326e-01 4.8292243009725688e-01 1.3386340079061185e-01 2.0665743701161438e-01 2.8032561227478109e-01 2.2247908784017406e-01 8.3208723501000045e-02 1.0556753161741120e-01 1.3571411019797641e-02 6.9887506237225255e-02 3.6741993940374112e-02 2.1002805950488773e-01 3.8394948152589203e-02 1.5662535514306308e-02 5.0687083706836833e-01 1.4452544408025738e+00 1.7725294302971912e+00 1.6652075425949646e+00 7.9346988978437771e-01 9.3121056273457503e-01 1.1605692744124911e+00 1.4079455334112827e+00 1.3827248700509291e+00 1.4873492331242306e+00 1.7823067478027921e+00 1.7127959567776698e+00 1.1840290442224455e+00 1.0801535010729273e+00 1.0061687612537327e+00 8.8171119627712091e-01 9.6902722828182686e-01 9.2015951328504320e-01 1.1762986021764577e+00 8.4706758497931811e-01 9.0702121299668148e-01 7.8297387380426764e-01 1.2457792574830440e+00 8.4662552479859388e-01 1.2038336356089034e+00 1.0776154167384870e+00 1.1791774083764022e+00 1.0841979532740389e+00 8.0867278998897132e-03 6.9440142455841569e-02 6.4243104121938736e-03 2.8134190475763231e-02 2.1525802958763079e-02 6.1515814662330426e-01 2.5848840780458134e-02 1.8379597366739269e+00 1.6285783278911881e+00 1.3650540049380404e+00 1.6495763725526702e+00 1.0830881536812473e+00 8.7964931855085315e-01 1.1306375572728202e+00 1.0103136754606985e+00 1.0672029147366064e+00 1.2012148146626149e+00 1.0316349060592824e+00 9.1125791856827720e-01 1.0372664168879271e+00 1.2486213717627168e+00 1.2305641432500134e+00 1.2476566344202731e+00 1.2823348348827894e+00 1.1966980746274445e+00 7.7601576256627858e-01 1.2920602406365000e+00 5.5738978946859263e-01 8.6051593383616876e-01 7.5122356433627890e-01 1.1439132876715261e+00 7.5190068763330942e-01 5.8670370917516168e-01 9.1998162392370042e-01 5.8071246887615691e-01 8.4469630852319066e-01 3.7898512380916183e-01 5.1732223591272541e-01 1.1198872549685592e+00 9.7160958240816231e-01 8.0353826994708832e-01 7.1314367565215997e-01 8.3748423637483893e-01 9.6273366243900593e-01 1.2089897704989541e+00 9.5158288268613844e-01 1.0096157446776637e+00 1.0248891437565109e+00 8.8809160202577564e-01 4.2756353570255777e-02 9.7080919145259958e-02 1.3225247450578220e-01 1.2040505099390728e-01 1.7993962071142228e-01 1.2949817724686943e-01 2.7064045773351053e-01 2.5876548036483552e-02 1.9548250602882994e-01 3.8435833196645885e-01 1.9823795336033948e-01 3.8396645442382374e-02 3.0399606219908859e-01 6.4057778054169900e-02 6.1766704820257347e-02 7.4047251828511226e-02 2.9995348029222324e-01 1.1980919960872023e+00 1.4696780542855641e+00 1.5799266131763479e+00 1.3534128430312413e+00 1.4765512150629423e+00 1.5701849567564530e+00 3.4833564894147417e-01 4.0599919493700354e-01 1.3195413129180580e-01 1.6227864441155349e-01 2.0592981451408326e-01 2.8081445354581636e-01 9.4362996447393738e-02 1.1930483401985981e-01 1.2994355592585760e-01 2.3233495745067505e+00 2.0534784819051426e+00 1.9968255900938638e+00 2.1157572066527091e+00 1.5971072269257225e+00 1.9569695588146780e+00 1.7574097208666872e-01 5.7687882182057537e-01 1.0061535471523344e+00 5.1430858944943370e-01 4.4696458418477703e-01 1.5523061532307278e-01 1.8274712603075755e-01 3.5195603419847654e-01 7.3620230687983335e-01 7.2717720080801918e-01 1.3368961243423043e+00 1.3082728926119702e+00 9.6894351152049185e-01 6.3067930162406460e-01 1.2675345756836847e+00 3.1545367423220344e-01 1.8843460064730522e-01 1.8797043122564439e-01 1.5498144642783340e+00 3.5859748052561907e-01 1.5558902661444705e+00 1.8650929949183097e+00 1.5306651852488848e+00 2.0492017249751773e+00 2.2210573834574681e+00 2.0346265379159911e+00 1.8340744496589925e+00 2.4535398415087348e+00 2.3656580063963517e+00 2.7088787483735438e-01 8.5761788803954297e-01 6.6810024214861208e-01 1.6448630638925517e+00 1.1681315989244954e+00 1.2742237452928207e+00 1.3201073713565652e+00 9.0310835800312406e-01 3.1365833421640321e-01 9.3379089482554722e-01 1.8688151457329916e-01 6.5451974530453394e-01 6.8374108710632087e-01 3.3780682673699319e-01 1.6581576448613911e-01 8.1813345450892938e-01 1.6190342160837096e-01 2.8314498212078537e-01 2.5580673803464427e+00 1.8843025879794606e+00 1.3450646826387083e+00 1.3619038813014181e-01 1.7765681228311248e-01 6.0125266507361497e-01 1.2650677880355718e-01 2.3834502148249275e+00 1.5133330183888488e-01 8.4600541959528500e-02 7.1651238553598881e-02 6.1244307763356917e-02 7.6466018570992311e-01 9.8109678806246242e-02 2.9164097880339668e-01 4.1003044477949807e-02 1.0174783927880593e+00 4.5574587057736948e-01 2.1904507633279297e-01 4.0364589824104063e-01 8.1416323074807773e-01 4.8091608033685462e-01 3.2365559581567332e-01 2.3345334011548315e+00 1.9454907573284685e+00 6.7143389207165138e-01 1.8143775013067336e+00 3.5401863772373379e-02 2.4321190539173584e-02 1.9437799649151172e-01 3.4406386729666033e-02 3.7744545990966472e-01 4.1618018876601559e-01 3.1341759920862822e-01 3.0171317913288143e-01 3.8514988601006317e-01 4.7539526258866066e-01 3.1808424456460166e-01 2.6196507631315269e-01 4.6895770270345838e-01 7.0315260408024632e-02 2.4642587591679915e-01 1.3601932798675703e-01 1.4772821117185794e-01 8.5921393695640134e-03 9.7347578068710860e-01 1.3690910302994581e+00 1.0942816235253094e+00 1.3431317462862493e+00 9.9460960288842593e-01 1.7907403455920805e+00 2.0892596453635734e+00 1.3502721343953203e+00 9.4464276640159495e-02 2.6569805091041059e-02 1.1278307457065442e-01 6.1669714856165944e-02 1.4578647007449480e-01 1.0188018470164142e-01 4.8375792471431922e-01 3.6630712396617093e-01 4.0348763154535072e-01 1.7347183833415603e-01 5.9384210007710825e-02 1.0386224542383998e-01 1.5751546000666531e-02 1.6091624245540909e-02 6.0411274696143136e-01 2.8208649996322033e-01 2.3977872566153152e-01 1.5207088012750158e+00 8.3966360899025894e-01 1.2907167073914771e+00 1.0945106078374227e+00 1.9045356185638693e+00 1.5267383419213760e+00 1.6805321212371649e+00 1.5519625446512380e+00 1.1954588304222666e+00 1.3952768724627913e+00 1.4336862718625458e+00 2.0367459264757022e+00 5.6748660812480381e-02 9.6992893552108380e-03 4.3776984680472392e-02 5.2201412847113892e-03 2.2051642947737378e-02 2.2742551904490812e-03 4.2059171596905823e-02 4.1598259755126019e-03 1.6388018059067457e-02 8.5123108222225487e-04 2.4992727000869366e-02 1.5796732829976134e-01 5.5530546388598816e-03 6.2789820974897270e-01 6.7023529473256516e-01 4.7403386023232486e-01 7.5646839285919998e-01 5.5458539110864291e-01 6.7384967208479751e-01 6.3110681238649513e-01 5.0826305347647815e-01 5.1981635434565965e-01 3.7529571823978647e-01 9.5664379881271733e-04 4.3681509553151945e-03 3.1177864156896750e-03 2.6964741343024005e-02 5.0640660551889149e-03 1.6071236502540907e-02 2.4967573483593589e-02 5.9219917893610051e-03 3.0259182932512781e-02 5.2350815683634720e-02 9.2926935461720067e-02 1.9121510418156806e-01 4.3228154513230488e-01 3.0619317728257678e-01 4.7148122371265810e-01 3.2011311735856451e-01 3.7122197540926362e-02 1.3848099218284227e-01 6.8759860245871635e-02 8.2326142749063039e-02 1.6554033908183389e-02 1.2473830755752384e-01 2.2534459831151313e-01 8.0076361684515124e-02 1.3075527938890305e-01 6.8325765920066645e-02 3.2870013386507857e-01 8.7834011601933992e-02 5.7898623404670647e-02 7.3051674651274989e-02 4.0903398836081861e-01 2.3885283443250349e-01 1.9509923167298415e-01 1.4810605162597512e-01 2.2941020285013072e-01 1.4260687532916344e-02 7.5111305422327557e-01 8.1515550740674603e-01 4.0526521995264175e-01 4.7523332836907406e-01 4.7683622779650237e-01 5.7932815756011613e-01 5.7681718783197455e-01 2.7104947512530830e-01 3.8022086875805083e-01 4.2279524171443522e-01 2.5485582246581223e-01 2.7445393160530129e-01 1.5314655118466436e-01 1.9530653325016889e-01 2.0299438021886948e-01 1.5855248802893096e-01 3.7920508791428098e-01 3.8002916947081677e-01 7.2687400697984850e-01 7.3793721323162287e-01 6.6984957895253672e-01 5.7465428385839656e-01 6.9650374258764880e-01 5.5496715171938482e-01 6.0267739508929763e-01 5.4135952114499764e-01 5.8669813568397833e-01 5.5009868414690666e-01 4.9474286345374074e-01 6.5064485657147719e-01 6.0187634592653394e-01 5.1350787326459080e-01 2.9193169506706740e-01 3.1518048772792351e-01 2.3326393373804408e-01 4.1151030001097288e-01 5.0122487964877804e-01 4.4704718161983881e-01 3.7593825509086076e-01 2.9945565814829778e-01 1.0774187819263052e+00 8.2474320277667656e-01 1.3499690432554963e+00 1.2054232658408734e+00 1.1976116340368743e+00 2.1737664840883042e-01 4.7926986177500783e-02 1.3756374813186409e-01 4.3061239126394597e-02 8.5640754750003795e-02 9.8759552948939081e-02 1.2132868662197453e-01 1.4148364471876737e-01 3.2462051114084778e-01 2.8893673720203367e-01 2.8286792858432369e-01 4.5105287355790089e-04 1.1637448576611886e+00 9.0113915642995601e-01 9.7465512902958229e-01 1.5628489876905605e+00 1.0712205523939242e+00 1.3284627984972868e+00 1.6247736838902024e-01 1.7705325018814447e-01 1.1893188167944915e-01 1.1247947464915944e-01 5.8241099074111610e-02 9.6846293104827039e-03 1.9464867239948416e-01 1.0186756699666459e+00 1.0355443687431389e+00 9.9037894810244698e-01 9.9701200279787772e-01 1.0126839825477290e+00 9.6296190329648557e-01 9.1727010083592031e-01 9.5679633093067140e-01 7.3987340520756439e-01 8.9436012571020584e-01 8.3177859807250965e-01 8.8643062969299935e-01 8.2258774192076700e-01 9.1267703229382424e-01 8.1643206451308203e-01 8.9773151254621841e-01 6.8317489094242068e-01 5.7532891300503142e-01 6.3721486201466904e-01 4.0670598316959045e-01 8.8266125123934058e-01 8.7864556453475839e-01 1.0750060659538603e+00 7.2059776684409937e-01 8.2441840664269428e-01 1.0215652641995714e+00 6.3807180179705236e-01 6.6388524942407789e-01 4.9904105662106496e-01 4.0015916712442690e-01 6.9214357335539334e-01 5.0927813801818911e-01 1.7854953708984983e-01 3.3058341666977059e-01 3.58116292956376