<?xml version="1.0"?>
<VTKFile type="UnstructuredGrid"  byte_order="LittleEndian">
<UnstructuredGrid>
<Piece NumberOfPoints="725" NumberOfCells=" 1450">
<Points>
<DataArray type="Float32" NumberOfComponents="3" format="ascii">
29.667908 1.308124 0.000000 0.616519 -3.275061 0.000000 34.878544 -3.275061 0.000000 0.616519 4.241469 0.000000 34.878544 4.241469 0.000000 29.661417 1.438176 0.000000 29.642010 1.566936 0.000000 29.609879 1.693124 0.000000 29.565342 1.815485 0.000000 29.508844 1.932804 0.000000 29.440947 2.043915 0.000000 29.362322 2.147712 0.000000 29.273754 2.243166 0.000000 29.176123 2.329327 0.000000 29.070396 2.405339 0.000000 28.957628 2.470446 0.000000 28.838936 2.524001 0.000000 28.715504 2.565473 0.000000 28.588552 2.594448 0.000000 28.459351 2.610639 0.000000 28.329176 2.613886 0.000000 28.199326 2.604155 0.000000 28.071091 2.581543 0.000000 27.945744 2.546276 0.000000 27.824530 2.498703 0.000000 27.708656 2.439298 0.000000 27.599272 2.368651 0.000000 27.497467 2.287464 0.000000 27.404251 2.196544 0.000000 27.320551 2.096794 0.000000 27.247198 1.989206 0.000000 27.184923 1.874849 0.000000 27.134344 1.754860 0.000000 27.095963 1.630431 0.000000 27.070162 1.502798 0.000000 27.057196 1.373231 0.000000 27.057196 1.243017 0.000000 27.070162 1.113450 0.000000 27.095963 0.985817 0.000000 27.134344 0.861388 0.000000 27.184923 0.741399 0.000000 27.247198 0.627042 0.000000 27.320551 0.519454 0.000000 27.404251 0.419704 0.000000 27.497467 0.328784 0.000000 27.599272 0.247597 0.000000 27.708656 0.176950 0.000000 27.824530 0.117545 0.000000 27.945744 0.069972 0.000000 28.071091 0.034705 0.000000 28.199326 0.012093 0.000000 28.329176 0.002362 0.000000 28.459351 0.005609 0.000000 28.588552 0.021800 0.000000 28.715504 0.050775 0.000000 28.838936 0.092247 0.000000 28.957628 0.145802 0.000000 29.070396 0.210909 0.000000 29.176123 0.286921 0.000000 29.273754 0.373082 0.000000 29.362322 0.468536 0.000000 29.440947 0.572334 0.000000 29.508844 0.683444 0.000000 29.565342 0.800763 0.000000 29.609879 0.923124 0.000000 29.642010 1.049312 0.000000 29.661417 1.178072 0.000000 1.595434 -3.275061 0.000000 2.574349 -3.275061 0.000000 3.553264 -3.275061 0.000000 4.532179 -3.275061 0.000000 5.511094 -3.275061 0.000000 6.490009 -3.275061 0.000000 7.468924 -3.275061 0.000000 8.447839 -3.275061 0.000000 9.426754 -3.275061 0.000000 10.405669 -3.275061 0.000000 11.384584 -3.275061 0.000000 12.363500 -3.275061 0.000000 13.342414 -3.275061 0.000000 14.321329 -3.275061 0.000000 15.300244 -3.275061 0.000000 16.279160 -3.275061 0.000000 17.258074 -3.275061 0.000000 18.236990 -3.275061 0.000000 19.215904 -3.275061 0.000000 20.194818 -3.275061 0.000000 21.173735 -3.275061 0.000000 22.152649 -3.275061 0.000000 23.131563 -3.275061 0.000000 24.110479 -3.275061 0.000000 25.089394 -3.275061 0.000000 26.068310 -3.275061 0.000000 27.047224 -3.275061 0.000000 28.026138 -3.275061 0.000000 29.005054 -3.275061 0.000000 29.983969 -3.275061 0.000000 30.962883 -3.275061 0.000000 31.941799 -3.275061 0.000000 32.920715 -3.275061 0.000000 33.899628 -3.275061 0.000000 0.616519 3.301903 0.000000 0.616519 2.362337 0.000000 0.616519 1.422771 0.000000 0.616519 0.483204 0.000000 0.616519 -0.456362 0.000000 0.616519 -1.395929 0.000000 0.616519 -2.335495 0.000000 34.878544 -2.335495 0.000000 34.878544 -1.395929 0.000000 34.878544 -0.456362 0.000000 34.878544 0.483204 0.000000 34.878544 1.422771 0.000000 34.878544 2.362337 0.000000 34.878544 3.301903 0.000000 33.899628 4.241469 0.000000 32.920715 4.241469 0.000000 31.941799 4.241469 0.000000 30.962883 4.241469 0.000000 29.983969 4.241469 0.000000 29.005054 4.241469 0.000000 28.026138 4.241469 0.000000 27.047224 4.241469 0.000000 26.068310 4.241469 0.000000 25.089394 4.241469 0.000000 24.110479 4.241469 0.000000 23.131563 4.241469 0.000000 22.152649 4.241469 0.000000 21.173735 4.241469 0.000000 20.194818 4.241469 0.000000 19.215904 4.241469 0.000000 18.236990 4.241469 0.000000 17.258074 4.241469 0.000000 16.279160 4.241469 0.000000 15.300244 4.241469 0.000000 14.321329 4.241469 0.000000 13.342414 4.241469 0.000000 12.363500 4.241469 0.000000 11.384584 4.241469 0.000000 10.405669 4.241469 0.000000 9.426754 4.241469 0.000000 8.447839 4.241469 0.000000 7.468924 4.241469 0.000000 6.490009 4.241469 0.000000 5.511094 4.241469 0.000000 4.532179 4.241469 0.000000 3.553264 4.241469 0.000000 2.574349 4.241469 0.000000 1.595434 4.241469 0.000000 23.635859 -2.473147 0.000000 34.155403 0.054023 0.000000 28.397223 -0.113952 0.000000 8.992502 3.444429 0.000000 18.712606 -2.437031 0.000000 5.017097 3.316978 0.000000 12.852991 3.393710 0.000000 15.841470 3.248522 0.000000 21.662340 3.425308 0.000000 6.979467 -2.427296 0.000000 11.037368 -2.429510 0.000000 24.463778 3.473696 0.000000 27.112782 1.991002 0.000000 31.536240 -2.616734 0.000000 27.272602 2.229058 0.000000 3.895253 -2.465229 0.000000 13.950281 -2.465696 0.000000 18.726295 3.394938 0.000000 27.467926 2.415022 0.000000 25.516163 -2.463326 0.000000 27.713333 0.043461 0.000000 27.975119 -0.059649 0.000000 27.710167 2.598207 0.000000 27.949728 2.697419 0.000000 28.272779 2.746612 0.000000 28.529497 2.731001 0.000000 28.818657 2.657781 0.000000 29.054941 2.534044 0.000000 29.318399 2.373408 0.000000 1.475341 0.986169 0.000000 31.549208 3.426737 0.000000 29.644226 1.930610 0.000000 21.705206 -2.460027 0.000000 16.770718 -2.525887 0.000000 8.937300 -2.478745 0.000000 6.952413 3.390175 0.000000 10.910302 3.402390 0.000000 29.632057 -2.505468 0.000000 28.938112 -0.006026 0.000000 28.704504 -0.096813 0.000000 27.615892 -2.472882 0.000000 34.165829 1.809819 0.000000 1.394457 -0.962161 0.000000 3.119271 3.424617 0.000000 26.567911 3.604808 0.000000 33.396023 -2.336160 0.000000 27.411060 3.466232 0.000000 26.961527 2.847529 0.000000 1.430208 2.832120 0.000000 33.285316 3.378720 0.000000 29.461214 3.579966 0.000000 28.611526 3.585255 0.000000 2.151412 -2.415524 0.000000 30.417530 3.533505 0.000000 29.936693 2.833679 0.000000 25.601866 3.582799 0.000000 26.081036 2.840715 0.000000 28.350859 -2.518686 0.000000 28.913849 -1.805763 0.000000 27.991188 -1.785995 0.000000 27.351980 -1.762595 0.000000 27.634296 -1.263307 0.000000 27.148855 -1.222983 0.000000 27.425760 -0.777812 0.000000 26.987511 -0.798972 0.000000 27.002005 0.891388 0.000000 27.190701 0.509723 0.000000 26.945097 1.166463 0.000000 27.368618 0.287254 0.000000 26.961260 1.449428 0.000000 26.993748 1.721374 0.000000 26.677286 -1.143962 0.000000 26.572538 -0.658982 0.000000 26.214447 -1.055323 0.000000 26.054989 -0.607064 0.000000 26.357752 -0.224085 0.000000 25.887560 -0.137482 0.000000 25.515429 -0.539834 0.000000 25.339811 0.011481 0.000000 24.905842 -0.458328 0.000000 24.695856 0.222744 0.000000 24.228653 -0.316412 0.000000 23.994314 0.436025 0.000000 25.182209 0.597176 0.000000 23.490513 -0.170272 0.000000 23.248098 0.605711 0.000000 22.702137 -0.024016 0.000000 26.225800 0.199436 0.000000 22.443119 0.786515 0.000000 21.857447 0.138808 0.000000 23.024765 1.376395 0.000000 21.588100 0.991819 0.000000 20.975033 0.315546 0.000000 20.701189 1.199643 0.000000 20.068714 0.515994 0.000000 27.842308 -0.838884 0.000000 20.355219 -0.378934 0.000000 19.437159 -0.178079 0.000000 19.146746 0.725366 0.000000 18.502878 0.022043 0.000000 18.206573 0.919098 0.000000 17.558039 0.223132 0.000000 17.261316 1.126906 0.000000 16.609747 0.429453 0.000000 27.185192 -0.469315 0.000000 26.610378 0.117956 0.000000 26.498661 0.477620 0.000000 16.316338 1.356510 0.000000 15.659135 0.641309 0.000000 15.954655 -0.286365 0.000000 15.001178 -0.077484 0.000000 14.706494 0.853283 0.000000 14.047100 0.132799 0.000000 13.744014 1.026480 0.000000 13.091007 0.337250 0.000000 12.832995 1.225096 0.000000 12.145124 0.573029 0.000000 12.433249 -0.376090 0.000000 11.481772 -0.147860 0.000000 11.189306 0.807364 0.000000 10.526801 0.069939 0.000000 10.228459 0.988481 0.000000 9.566856 0.261389 0.000000 9.271152 1.191409 0.000000 8.610121 0.467890 0.000000 8.314916 1.400451 0.000000 7.654062 0.677926 0.000000 7.949089 -0.255478 0.000000 6.993115 -0.044408 0.000000 6.698182 0.888783 0.000000 6.037386 0.166772 0.000000 5.732001 1.051234 0.000000 5.081177 0.371859 0.000000 4.775942 1.251664 0.000000 4.128915 0.582011 0.000000 5.376675 -0.553766 0.000000 14.426233 1.722501 0.000000 15.296721 -1.008310 0.000000 26.109964 0.606016 0.000000 26.428736 0.872020 0.000000 26.098703 0.969050 0.000000 26.295116 1.234366 0.000000 25.944328 1.308786 0.000000 26.274240 1.637643 0.000000 25.836021 1.799733 0.000000 3.837718 1.522526 0.000000 22.975914 -0.814713 0.000000 24.475103 -0.990039 0.000000 17.880844 -0.714085 0.000000 16.944040 2.008762 0.000000 9.944692 -0.681498 0.000000 26.355865 -1.526434 0.000000 3.197309 0.806506 0.000000 3.472697 -0.119179 0.000000 2.868144 1.808656 0.000000 9.915154 1.884926 0.000000 18.891306 1.714456 0.000000 25.836075 -1.415972 0.000000 19.733206 -1.060895 0.000000 6.290618 1.833962 0.000000 26.947889 -2.275672 0.000000 25.491230 1.445634 0.000000 25.351347 1.986128 0.000000 24.923117 1.595678 0.000000 24.790007 2.182385 0.000000 24.298140 1.741357 0.000000 24.104836 2.377890 0.000000 11.792484 -1.057218 0.000000 21.374352 1.866480 0.000000 20.456888 2.064983 0.000000 26.849617 0.411938 0.000000 26.960693 0.097610 0.000000 26.744282 0.724867 0.000000 2.611946 0.122217 0.000000 2.878870 -0.809347 0.000000 12.711575 -1.333012 0.000000 20.683846 -1.294874 0.000000 27.716755 -0.506319 0.000000 28.027754 -0.538063 0.000000 28.187906 -0.815580 0.000000 28.332663 -0.482469 0.000000 28.509079 -0.767660 0.000000 28.627562 -0.496803 0.000000 28.815012 -0.749610 0.000000 28.933044 -0.441560 0.000000 29.128256 -0.720237 0.000000 29.273743 -0.429891 0.000000 29.459354 -0.701647 0.000000 29.600443 -0.347279 0.000000 29.804451 -0.671159 0.000000 29.949471 -0.351633 0.000000 29.767740 1.093731 0.000000 29.638695 0.693175 0.000000 29.764277 1.390251 0.000000 29.498510 0.450596 0.000000 29.713190 1.667902 0.000000 30.175201 -0.657021 0.000000 30.318193 -0.319730 0.000
[...]
<CellData Scalars="Label">
<DataArray type="Int32" Name="Label" format="ascii">
1 1 1 1 1 1 1 1 1 1 1 1 1 1 1 1 1 1 1 1 1 1 1 1 1 1 1 1 1 1 1 1 1 1 1 1 1 1 1 1 1 1 1 1 1 1 1 1 1 1 1 1 1 1 1 1 1 1 1 1 1 1 1 1 1 1 1 1 1 1 1 1 1 1 1 1 1 1 1 1 1 1 1 1 1 1 1 1 1 1 1 1 1 1 1 1 1 1 1 1 1 1 1 1 1 1 1 1 1 1 1 1 1 1 1 1 1 1 1 1 1 1 1 1 1 1 1 1 1 1 1 1 1 1 1 1 1 1 1 1 1 1 1 1 1 1 1 1 1 1 1 1 1 1 1 1 1 1 1 1 1 1 1 1 1 1 1 1 1 1 1 1 1 1 1 1 1 1 1 1 1 1 1 1 1 1 1 1 1 1 1 1 1 1 1 1 1 1 1 1 1 1 1 1 1 1 1 1 1 1 1 1 1 1 1 1 1 1 1 1 1 1 1 1 1 1 1 1 1 1 1 1 1 1 1 1 1 1 1 1 1 1 1 1 1 1 1 1 1 1 1 1 1 1 1 1 1 1 1 1 1 1 1 1 1 1 1 1 1 1 1 1 1 1 1 1 1 1 1 1 1 1 1 1 1 1 1 1 1 1 1 1 1 1 1 1 1 1 1 1 1 1 1 1 1 1 1 1 1 1 1 1 1 1 1 1 1 1 1 1 1 1 1 1 1 1 1 1 1 1 1 1 1 1 1 1 1 1 1 1 1 1 1 1 1 1 1 1 1 1 1 1 1 1 1 1 1 1 1 1 1 1 1 1 1 1 1 1 1 1 1 1 1 1 1 1 1 1 1 1 1 1 1 1 1 1 1 1 1 1 1 1 1 1 1 1 1 1 1 1 1 1 1 1 1 1 1 1 1 1 1 1 1 1 1 1 1 1 1 1 1 1 1 1 1 1 1 1 1 1 1 1 1 1 1 1 1 1 1 1 1 1 1 1 1 1 1 1 1 1 1 1 1 1 1 1 1 1 1 1 1 1 1 1 1 1 1 1 1 1 1 1 1 1 1 1 1 1 1 1 1 1 1 1 1 1 1 1 1 1 1 1 1 1 1 1 1 1 1 1 1 1 1 1 1 1 1 1 1 1 1 1 1 1 1 1 1 1 1 1 1 1 1 1 1 1 1 1 1 1 1 1 1 1 1 1 1 1 1 1 1 1 1 1 1 1 1 1 1 1 1 1 1 1 1 1 1 1 1 1 1 1 1 1 1 1 1 1 1 1 1 1 1 1 1 1 1 1 1 1 1 1 1 1 1 1 1 1 1 1 1 1 1 1 1 1 1 1 1 1 1 1 1 1 1 1 1 1 1 1 1 1 1 1 1 1 1 1 1 1 1 1 1 1 1 1 1 1 1 1 1 1 1 1 1 1 1 1 1 1 1 1 1 1 1 1 1 1 1 1 1 1 1 1 1 1 1 1 1 1 1 1 1 1 1 1 1 1 1 1 1 1 1 1 1 1 1 1 1 1 1 1 1 1 1 1 1 1 1 1 1 1 1 1 1 1 1 1 1 1 1 1 1 1 1 1 1 1 1 1 1 1 1 1 1 1 1 1 1 1 1 1 1 1 1 1 1 1 1 1 1 1 1 1 1 1 1 1 1 1 1 1 1 1 1 1 1 1 1 1 1 1 1 1 1 1 1 1 1 1 1 1 1 1 1 1 1 1 1 1 1 1 1 1 1 1 1 1 1 1 1 1 1 1 1 1 1 1 1 1 1 1 1 1 1 1 1 1 1 1 1 1 1 1 1 1 1 1 1 1 1 1 1 1 1 1 1 1 1 1 1 1 1 1 1 1 1 1 1 1 1 1 1 1 1 1 1 1 1 1 1 1 1 1 1 1 1 1 1 1 1 1 1 1 1 1 1 1 1 1 1 1 1 1 1 1 1 1 1 1 1 1 1 1 1 1 1 1 1 1 1 1 1 1 1 1 1 1 1 1 1 1 1 1 1 1 1 1 1 1 1 1 1 1 1 1 1 1 1 1 1 1 1 1 1 1 1 1 1 1 1 1 1 1 1 1 1 1 1 1 1 1 1 1 1 1 1 1 1 1 1 1 1 1 1 1 1 1 1 1 1 1 1 1 1 1 1 1 1 1 1 1 1 1 1 1 1 1 1 1 1 1 1 1 1 1 1 1 1 1 1 1 1 1 1 1 1 1 1 1 1 1 1 1 1 1 1 1 1 1 1 1 1 1 1 1 1 1 1 1 1 1 1 1 1 1 1 1 1 1 1 1 1 1 1 1 1 1 1 1 1 1 1 1 1 1 1 1 1 1 1 1 1 1 1 1 1 1 1 1 1 1 1 1 1 1 1 1 1 1 1 1 1 1 1 1 1 1 1 1 1 1 1 1 1 1 1 1 1 1 1 1 1 1 1 1 1 1 1 1 1 1 1 1 1 1 1 1 1 1 1 1 1 1 1 1 1 1 1 1 1 1 1 1 1 1 1 1 1 1 1 1 1 1 1 1 1 1 1 1 1 1 1 1 1 1 1 1 1 1 1 1 1 1 1 1 1 1 1 1 1 1 1 1 1 1 1 1 1 1 1 1 1 1 1 1 1 1 1 1 1 1 1 1 1 1 1 1 1 1 1 1 1 1 1 1 1 1 1 1 1 1 1 1 1 1 1 1 1 1 1 1 1 1 1 1 1 1 1 1 1 1 1 1 1 1 1 1 1 1 1 1 1 1 1 1 1 1 1 1 1 1 1 1 1 1 1 1 1 1 1 1 1 1 1 1 1 1 1 1 1 1 1 1 1 1 1 1 1 1 1 1 1 1 1 1 1 1 1 1 1 1 1 1 1 1 1 1 1 1 1 1 1 1 1 1 1 1 1 1 1 1 1 1 1 1 1 1 1 1 1 5 5 5 5 5 5 5 5 5 5 5 5 5 5 5 5 5 5 5 5 5 5 5 5 5 5 5 5 5 5 5 5 5 5 5 5 5 5 5 5 5 5 5 5 5 5 5 5 5 5 5 5 5 5 5 5 5 5 5 5 5 5 5 4 4 4 4 4 4 4 4 4 4 4 4 4 4 4 4 4 4 4 4 4 4 4 4 4 4 4 4 4 4 4 4 4 4 4 2 2 2 2 2 2 2 2 3 3 3 3 3 3 3 3 4 4 4 4 4 4 4 4 4 4 4 4 4 4 4 4 4 4 4 4 4 4 4 4 4 4 4 4 4 4 4 4 4 4 4 
</DataArray>
<DataArray type="Float64" Name="u" NumberOfComponents="1" format="ascii">
8.0323117858329782e-02 3.8726934190304207e-01 5.0894683723738410e-01 3.7039259701190730e-01 3.2371525725197040e-02 1.1491892492157776e+00 9.3162807353650667e-01 9.9957190673069440e-01 1.2480455882057582e+00 3.3010455354987644e-02 1.3447805624102241e-01 4.3163628653258129e-01 1.5670936138041469e+00 1.0743392796700343e-01 1.4421584428643996e+00 3.5174463998190503e-01 1.6528524500411013e-01 7.2516549348726878e-01 1.1726272033568925e+00 6.4415206306831041e-01 3.6059104992935431e-01 6.8983548115651300e-02 1.0491362576682561e-01 1.6383758453045147e+00 1.1402945348593083e+00 9.2771960537938547e-01 4.0543157306944100e-01 1.0017552758614388e+00 1.3252773525704615e+00 2.0332633544374010e+00 6.3523587451785990e-01 1.7595242205786907e+00 1.9810016896371846e-01 3.6416420517554121e-01 1.9047745162155982e-01 6.5300212578796657e-01 4.1392874098350202e-01 6.5685990839037611e-01 6.8136865298092220e-01 2.4620613260781088e-01 3.6885264196735580e-02 3.8172129166674468e-01 8.1776604450926094e-01 6.6899648966026060e-01 2.3435825162769386e+00 3.4095243956217414e-01 2.7473860753180090e-01 5.5190665285961282e-01 3.2114729811237752e-01 8.1342394560051212e-01 9.9949191127313086e-01 2.6744013774700925e-01 8.7193050509087899e-01 2.8683329480016906e-01 1.6557411715784673e+00 7.3632691475575907e-01 2.5726177450307408e-01 1.0113639295826939e+00 7.3993114642646407e-01 9.9848138325054214e-01 6.1310678389369389e-01 7.9225188140465996e-01 7.1268599059345816e-01 1.0058277732676608e+00 1.7244923120655236e+00 1.1100572324830950e-01 7.5625164267177225e-01 1.2342158996650126e+00 9.5448283147711455e-01 1.1704306226944188e+00 7.9415009443076134e-01 7.2600000543127585e-01 1.1238336407526950e+00 1.1475861338184099e+00 1.5712488475160746e+00 2.0093566841102739e-01 1.4298599426372860e+00 2.1546263598185131e+00 1.5628032836993015e+00 9.1867991664059634e-01 6.6329741433799727e-01 1.2828173141529056e+00 9.9855064971729202e-01 1.0608753271517721e+00 1.3664150626938670e-01 5.3751623039195318e-01 4.2347314037286532e-01 1.8183463503212201e+00 1.0006070663369919e+00 4.2949700620699988e-01 1.3162337691810890e+00 2.2210975651361360e+00 1.0054679439506398e+00 1.1750757541749119e+00 7.9758540776818676e-01 9.9806946117140161e-01 5.7956993251143563e-01 7.5448180854334457e-01 5.3266460623967293e-01 6.9151394327715429e-02 9.9969241835222022e-01 6.0718870242026446e-01 8.8832143721409254e-02 9.0263556270534973e-01 2.0187468383073312e-01 5.3352426183205803e-01 9.5895495300774070e-02 4.7911070618361029e-01 1.8825788006896962e+00 9.0311031259688757e-01 1.9357977901456818e+00 6.7328124106791032e-01 7.8342811407996993e-01 6.6622904593313648e-01 6.1367143450645056e-01 1.3955975999798137e-01 1.0727209731809035e+00 1.0019806107696496e+00 4.6868209395840033e-01 2.2373810523430615e-01 5.4520409327580377e-01 6.7085135519725436e-01 4.5284656073932217e-01 3.5684938700047480e-01 7.9877496945770232e-01 9.5041566154126150e-02 1.5009376277975197e+00 1.0145579254614459e+00 2.0558416416953956e-01 7.9302862953586284e-01 6.7305536183814574e-01 7.6295894381721752e-01 1.5781674827923635e+00 9.7232820174483137e-01 1.1140777011735072e+00 4.4962328229402432e-01 2.3336736621111682e+00 1.3399507937708641e+00 2.4556569195732303e+00 9.0089371695119200e-02 6.7978467036651669e-01 1.0000993659280226e+00 1.5861871466607309e+00 6.1294474831851131e-01 1.0020504111010580e+00 8.7730488034049103e-01 8.6075407865305342e-01 1.2155149829956895e+00 9.1896903567442634e-01 1.0001440171734408e+00 2.0404341807524062e-01 2.2583975032537498e+00 1.0313026538316596e+00 3.1431467072254382e-01 1.0342136446476844e+00 1.1752221512288297e+00 8.1919676720364709e-01 1.1544056693201634e+00 6.7737197006118821e-01 6.1190055765614904e-01 8.5406459042216576e-01 1.0007442735147269e+00 1.0077278686221161e+00 6.0216112167634672e-01 1.0065809477684426e+00 7.8934113068308509e-01 1.5053652745037085e+00 7.4819315541781561e-01 7.2531831152455917e-01 1.6462065377887465e+00 9.9705644513053371e-01 8.7750938471483619e-01 7.9115419300009648e-01 1.3696295429250541e-01 2.7054508411602146e-01 5.9765688000205386e-01 5.6254009603911026e-01 1.3234208823535898e+00 9.3212400090611269e-01 2.2460782894101130e+00 1.8667127607258727e-01 9.6624454753840938e-01 2.2925206461236280e+00 1.0004547316061454e+00 7.4840378473429114e-01 8.3372991536228991e-01 9.8801190507727010e-01 2.5169489339157691e-01 1.4915477069906929e-02 2.0033091646068026e+00 6.6383943563452341e-01 6.6842127258757589e-01 5.4011870086734826e-01 2.4367709582891508e+00 2.3820434526002217e+00 9.9720712138513745e-01 2.7613027457454209e-01 5.8912000376840834e-01 2.9489925864551125e-01 6.5497427456881874e-01 1.7495170043263966e+00 5.8168810208025057e-02 1.9814460560635810e-01 6.1870967663704868e-01 6.1989264126267141e-01 1.9943760443337251e+00 1.7250357887614637e-01 1.4054781471680160e+00 1.9664190221190272e+00 1.2102252273753602e+00 6.1965384112091002e-02 8.2444211929465294e-01 4.9653797050691939e-01 2.2414232725195671e-01 8.2736798356949603e-01 1.4424141436124105e-01 1.9375521429093661e+00 3.3681001098912289e-01 2.7187112448385987e-02 9.8801715241299903e-01 1.6113657795427816e+00 1.4469157438178881e+00 5.6073107504772479e-01 2.9781286949613961e-01 1.0095946178061110e+00 9.7341080211698106e-01 8.8184243237101678e-01 6.9977685524618116e-01 9.9985220925535401e-01 3.4123614147355047e-01 5.6948041362072144e-01 5.9010116607860763e-01 7.3306455365733347e-01 1.5883364747718429e-02 4.0044534682147970e-01 3.4591188996187133e-01 7.0122174271127369e-01 5.4781269137061961e-01 7.4781131165288883e-01 7.3573641722326966e-01 1.4939198680997716e+00 9.2812804687879669e-01 7.6868204314257960e-01 2.3984940959657219e+00 1.8303395014594295e+00 2.4103482450821428e-01 1.0002245558009875e+00 2.4465197588827636e+00 1.9535326715018417e-01 6.9201816039697062e-01 2.1462976762875736e+00 5.4998223720288808e-01 2.4982628605070722e+00 8.2453294716632120e-01 1.5659599593378251e+00 4.1364191508739945e-01 8.0337317536250619e-01 1.5384512515663959e-01 5.8961308509816519e-02 1.0285993044017379e+00 4.6418028004284539e-01 1.1688436473167791e+00 3.2193697420444378e-01 1.2467747899607313e+00 1.5470957368247023e+00 9.9904720083769250e-01 7.8471784026010005e-01 2.1836107085890673e+00 3.7584176773537303e-01 1.4646546328923955e+00 2.8948072151594395e-01 3.9430027579373605e-01 1.0629103388767662e-01 8.9763060394954441e-01 3.4285348211671085e-01 1.7143536017471654e+00 3.4988230727083507e-02 5.0472882217041992e-01 1.7307420518717624e+00 9.9976983916583451e-01 1.5369011020481147e+00 1.5944662351501782e-01 1.0488378569714725e+00 1.0002636784705610e+00 2.3498291916760711e-01 9.6631947493450809e-01 1.5824252080655343e+00 6.8068299529784282e-01 7.8397695013833735e-01 1.0029120009108086e+00 2.0687237018996769e+00 9.9931125139980792e-01 3.9705794956626894e-01 7.2513316077168821e-01 8.0487542827447034e-01 1.8139470752659264e+00 8.0822248155610454e-01 6.7659155805121518e-01 1.1084683253472865e+00 4.2628590743489581e-01 8.5253298862338101e-01 1.9828229865325566e+00 1.2911921384392495e+00 7.6260562695818157e-01 7.5730096828714755e-01 1.1229892417749654e+00 9.4602657070311458e-01 8.6044199792729403e-01 5.9363986791847556e-01 9.9994933779651296e-01 1.3239300130703537e+00 1.0169819114806948e+00 9.9924929835798015e-01 9.9885952502153774e-01 9.1341697190598281e-01 5.7124184345383089e-01 1.3803064343846660e+00 4.0078379808586945e-01 1.9443765810333935e-01 7.5365687772937706e-01 1.1476595902406639e+00 2.0967038331176341e-01 1.3894171003521669e+00 3.7632228731662587e-01 6.0744263448210689e-01 2.9464058602074383e-01 1.0006856001155484e+00 1.4737834763219722e+00 7.2494570962094407e-01 2.5295218110226803e-01 1.2383236371001329e+00 2.7872814260607659e-01 4.4878075562397901e-01 1.1665742960875736e-01 4.1261874807699483e-01 7.3768963377134056e-01 2.1429895111407893e-01 1.4072397555894591e+00 5.7186482684029039e-01 3.3100765145992467e-01 1.3164832408510674e+00 1.6019741312857576e+00 9.2927778202252598e-01 1.3575326152359311e+00 9.9974812545286273e-01 5.1593345039468319e-01 2.3741029830472521e-01 6.0171259428935797e-01 8.1345230413776215e-01 2.0607849620024448e+00 8.0632285714408836e-01 8.4727899218375580e-01 1.5099841852770084e+00 1.0268001447704986e+00 1.2807797969490173e+00 1.9201297852282126e+00 1.7390337144471615e+00 1.5291674269960085e+00 8.5239954832418618e-01 1.0002292282259604e+00 6.3661724170543510e-01 1.0002702946608839e+00 1.0031788395568904e+00 2.3880976372209817e-01 9.9993684003459249e-01 7.7803121315767321e-01 6.4287769351282253e-01 8.9090275084556914e-01 9.9551520022622086e-01 9.9991400799735852e-01 8.2798232071292732e-01 1.0000786929917567e+00 1.0000178855144666e+00 1.2196240837101451e+00 5.0701832989672857e-01 9.9994466122054615e-01 1.7476818019991698e+00 1.0410916722561241e+00 1.0212751388515053e+00 9.9989011792581328e-01 9.1610678754803410e-01 1.1174247398534425e+00 9.9979999010127207e-01 9.9952633358354415e-01 9.2459244834028009e-01 1.0000074540439501e+00 9.9972410719928739e-01 8.9008871013854485e-01 8.7024585089497597e-01 6.5704976089937595e-01 1.0548363399278560e+00 1.2157916484459750e+00 1.0347335945453051e+00 9.9988585902142635e-01 1.7349521692330144e-01 1.0004207225144515e+00 9.9998327564856937e-01 1.9963279564585712e-01 8.9667436622475516e-01 1.0601300297315581e+00 1.0000580113865725e+00 9.5744113122925656e-01 9.4881076243316986e-01 9.1908435444193981e-01 1.0005884284247872e+00 9.9962655432880942e-01 1.0001570194790117e+00 9.4059919090055066e-01 1.0000669363245505e+00 9.9991111698060742e-01 1.0204761833441647e+00 1.0000735436399641e+00 9.9990666178259624e-01 1.0005027457283873e+00 1.0035159849059154e+00 9.8633217794794292e-01 9.7876346870248221e-01 9.8925215738038697e-01 9.9319131249581005e-01 9.9380709930474942e-01 1.0038282773050846e+00 9.9257082831583454e-01 9.9893444793255692e-01 9.7422045516409383e-01 9.7000672595504867e-01 9.2965099491848990e-01 9.9939931258557380e-01 1.0009584568801944e+00 1.0011514833237132e+00 9.9095567906006488e-01 9.9819844374918709e-01 9.9869930800756868e-01 9.8175028138416298e-01 9.8497924568266149e-01 1.0036018269804883e+00 1.0048297029362359e+00 1.0032245631091523e+00 1.0011141006099646e+00 1.0003317797146913e+00 9.9854608409955925e-01 9.9240800613748048e-01 1.0021069715572126e+00 9.9751281932435920e-01 1.0017075516095546e+00 1.0044158404553616e+00 9.9634457912606456e-01 9.8711499468774322e-01 9.9366011026222478e-01 9.9692173019774666e-01 9.9857448643492508e-01 9.9938490331371255e-01 1.0064571527787256e+00 1.0187260336762396e+00 9.9790897671888457e-01 1.0024981928125387e+00 1.0052776178465972e+00 9.9831670941136741e-01 1.0003624063144825e+00 9.9477325958858187e-01 1.0014317495998029e+00 9.0404466120909688e-01 9.6361808274531624e-01 9.9556025911922419e-01 1.0733790833650041e+00 1.0608107652891854e+00 1.0030608725603392e+00 1.1026700385716264e+00 1.0522892497285712e+00 1.0848906887031800e+00 1.0036078496968146e+00 1.0010114142070796e+00 9.9998521920462302e-01 9.9962022292624464e-01 1.0006245986797002e+00 1.0001727080929741e+00 1.0002650693898336e+00 9.9964414040305782e-01 9.9965986840634569e-01 1.0006144538320414e+00 9.9936725594985809e-01 1.0011414987540133e+00 1.0012094508697427e+00 9.9847462004163146e-01 1.0005322747012886e+00 9.9030860046490132e-01 9.9977631765638775e-01 9.9824422329940454e-01 9.8942017701330198e-01 9.9778470541976960e-01 9.9943735820599133e-01 9.9948335870928151e-01 1.0000775232738510e+00 1.0059207618209585e+00 1.0069275109719737e+00 9.9965929692419797e-01 1.0037712556338541e+00 1.0064529905557471e+00 1.0014626779705966e+00 1.0006659306162482e+00 1.0072621616278874e+00 1.8507557975012521e+00 1.0002411690589410e+00 1.0018414002662019e+00 1.0004874679101639e+00 9.9878477016025080e-01 1.0068282131952402e+00 1.0221568536197483e+00 9.9760784280996151e-01 9.9344475739310023e-01 9.9980143621651074e-01 9.9827121613645375e-01 1.0162738390660184e+00 9.9977781127116927e-01 1.0249719247618199e+00 1.0193130380167645e+00 1.0118529953858202e+00 9.9991691851034503e-01 1.0016499769765763e+00 1.0003258304293616e+00 1.0122191013325914e+00 9.9947735374476199e-01 5.8663439969990816e-01 9.7756305664573773e-01 1.0001625730334425e+00 1.0051683267003080e+00 9.9027344299794329e-01 1.0033209656856918e+00 1.0001353804394282e+00 9.7462640592785255e-01 9.8910724418877449e-01 9.9303081360896339e-01 9.8089533755855329e-01 1.0000568370997263e+00 9.9368817465896020e-01 9.8896231294189252e-01 1.0189458150302146e+00 1.0112078921205381e+00 9.9617041452381172e-01 1.4690881241741636e+00 1.0208055798704321e+00 1.0093942526616413e+00 1.0864763402892250e+00 1.0001476042156709e+00 9.9999931630026606e-01 1.0857797516281145e+00 1.0000004704176080e+00 9.9999838719408640e-01 9.7026448226365836e-01 9.9043061016695810e-01 1.0000015527263320e+00 1.0774553835750640e+00 9.9999746546385526e-01 1.0001125676437574e+00 7.2358152970874301e-01 4.8228386061941286e-01 1.0009633975047605e+00 1.0853937170287744e+00 9.9999999431078801e-01 1.3136718684346832e-01 9.9999528433475793e-01 5.1064919453863777e-01 1.0547289856043343e+00 1.0124805389778804e+00 1.0000039445472280e+00 1.1152825748149169e+00 9.7903744157826689e-01 9.9388406738465118e-01 1.1485203049423819e-01 9.5656581886601555e-01 7.9328526996033877e-01 8.8680440762365875e-01 9.9999197750584656e-01 1.8405405211509600e+00 1.0007155799237955e+00 1.0228391267062129e+00 2.6387696308522968e-01 1.0091905597437434e+00 8.9741581874726206e-01 1.0520294079708032e+00 2.2259603833520765e+00 9.0393347972455929e-01 8.6507221736269835e-01 1.0094998925460938e+00 2.0660081380171111e+00 1.1957552466414110e+00 1.0000280908792405e+00 1.0146092283775241e+00 9.8432525646564395e-01 6.3187735490016128e-01 6.8485547440987338e-01 4.5497975196787022e-01 8.9388957000379066e-01 1.0018161101687963e+00 9.7147540905845498e-01 9.9992162451643696e-01 6.6360652466579306e-01 8.7243191242453319e-02 9.7067166014146222e-01 7.9852736211467501e-01 9.5369951144847720e-01 9.1978476551021415e-01 1.4344049852115326e+00 9.9999061257154243e-01 3.4930200588379456e-01 5.1392625994105479e-01 1.0363866631402794e+00 9.9955976671180125e-01 1.0129550883743885e+00 6.0358780171095838e-01 9.4966872331937768e-01 1.0321009120246654e+00 5.0554358412395217e-01 2.1721896106026298e-01 3.4627482768640006e-01 9.7927021677672288e-01 1.0330510885182480e+00 9.9887917403589976e-01 1.1130909760060006e+00 8.9801792403260458e-02 2.6804653230019326e-01 2.2114781575286333e+00 1.2633496144384564e+00 3.9338503638107591e-01 1.8648250621444812e-01 1.0104272375216610e+00 9.5907221455026326e-01 8.7199658987900563e-01 1.9549855187957421e+00 1.0648073413699377e+00 1.2034121576022665e+00 3.6418309537489635e-01 1.3077497440461043e+00 5.1881581343792083e-01 1.0591948742103605e+00 5.7485161666236198e-02 9.9693897209341342e-01 9.7405124749483485e-01 1.0000073745695344e+00 4.1060487367042642e-01 5.3665125716089157e-01 8.0268835900066160e-01 2.0514966580909908e+00 8.7979188887925974e-01 2.6086472673252620e-01 1.0008252528666506e+00 1.0008025440180188e+00 9.9985859534625043e-01 8.2615977453160194e-01 4.9357836642373931e-01 1.2764693007262620e-01 2.7370560151405585e-02 9.9997110326565419e-01 1.0021317503920288e+00 1.0035762727265487e+00 8.0181715625837935e-01 2.8311760265452590e-01 9.9897699995747469e-01 8.0999167214733978e-02 9.9515683273284350e-01 1.0744551622406593e+00 9.9560734564325737e-01 9.4559582004579701e-01 1.0550704991523121e+00 1.0247235002044601e+00 1.5824023903375929e-02 8.6644532182431136e-02 9.9669628498704355e-01 4.3986308635878719e-02 1.1192496671607979e+00 7.4744809023496028e-01 1.0107344657991937e+00 9.9986763791857158e-01 1.8496645345259157e+00 2.1001536254766648e-03 9.6988133654009290e-01 1.0010725193659042e+00 4.6094618270815024e-01 3.1037332997877498e-01 1.0153607790196353e+00 9.7749479830571118e-01 1.0001309328691192e+00 6.0231765021327810e-01 1.0001030163979043e+00 5.0426167198073579e-01 1.0000326540257520e+00 9.6306489157419717e-01 1.0221479860313867e+00 1.0000022128175712e+00 1.0003866662255541e+00 5.2847534248780859e-01 1.0571181711330322e+00 8.6033746138467193e-01 1.5704924043580952e+00 1.1626458779018595e-01 1.2853675518906318e+00 9.3979440280585358e-01 6.2228320791618397e-01 1.0002650967142994e+00 1.1495814383319605e+00 5.3002191973117885e-01 6.3569309033635446e-01 2.0233037334842158e-01 9.5820024837370632e-01 1.0004004711232355e+00 6.6710672507353264e-01 9.9931334318560849e-01 1.3651184131747959e-01 8.8399144923093698e-01 9.8060171368673976e-01 9.9918275785920452e-01 4.8533921160712645e-01 1.4418861546601331e+00 1.0986977689406183e+00 1.0473570823466976e+00 1.4680950333782475e-01 1.0095988279155526e+00 1.1879401131961043e+00 9.9995203714329894e-01 1.1044873277182417e+00 9.3108687289358361e-01 8.8699343694682631e-02 1.0256438001066168e+00 5.5323289043575341e-01 1.1400677216873560e+00 9.9657220427844950e-01 9.9889119514057145e-01 6.5578033940568670e-01 9.4365686575887442e-01 1.2351598023045738e+00 1.0124932501128290e+00 8.6368005337857334e-01 9.9199491149693353e-01 7.0830366859431715e-01 9.9810378768177266e-01 9.1857782732089932e-01 1.0435775910907976e+00 6.06