<?xml version="1.0"?>
<VTKFile type="UnstructuredGrid"  byte_order="LittleEndian">
<UnstructuredGrid>
<Piece NumberOfPoints="684" NumberOfCells=" 1368">
<Points>
<DataArray type="Float32" NumberOfComponents="3" format="ascii">
36.725319 -1.480842 0.000000 36.725319 -0.441462 0.000000 36.725319 4.748749 0.000000 36.725319 3.716027 0.000000 36.725319 -3.552913 0.000000 36.725319 -2.520190 0.000000 35.965492 -1.998860 0.000000 35.965492 -1.219325 0.000000 36.725319 0.597918 0.000000 36.050282 -0.093887 0.000000 36.725319 1.637298 0.000000 36.725319 2.676678 0.000000 36.050282 1.289723 0.000000 35.707874 4.748749 0.000000 36.049194 3.367368 0.000000 35.373070 4.058059 0.000000 35.707874 -3.552913 0.000000 35.205669 -2.516878 0.000000 35.105228 -1.686043 0.000000 35.375244 -0.785692 0.000000 35.487751 0.482617 0.000000 35.915272 2.259588 0.000000 35.420246 1.659353 0.000000 34.925217 1.059121 0.000000 34.696945 4.748749 0.000000 35.205669 3.193024 0.000000 34.445843 3.970886 0.000000 34.475193 -0.324489 0.000000 34.696945 -3.552913 0.000000 34.295181 -2.308333 0.000000 34.295181 -1.270625 0.000000 34.306435 0.424967 0.000000 34.700207 2.673333 0.000000 34.137672 1.174422 0.000000 34.025166 1.981528 0.000000 33.686020 4.748749 0.000000 34.025166 3.365139 0.000000 33.350128 4.056944 0.000000 33.575142 -0.555091 0.000000 33.686020 -3.552913 0.000000 33.350128 -2.861108 0.000000 33.485138 -1.892915 0.000000 33.462635 0.367316 0.000000 33.687649 2.673333 0.000000 33.012611 1.981528 0.000000 33.350128 1.289723 0.000000 32.675091 4.748749 0.000000 32.675091 3.711041 0.000000 32.675091 -1.477497 0.000000 32.675091 -0.439790 0.000000 32.675091 -3.552913 0.000000 32.548725 -2.515205 0.000000 32.675091 0.597918 0.000000 32.675091 2.673333 0.000000 32.043262 1.635626 0.000000 31.664164 4.748749 0.000000 31.790529 3.711041 0.000000 31.664164 -1.477497 0.000000 31.664164 -0.439790 0.000000 31.664164 -2.515205 0.000000 31.664164 -3.552913 0.000000 31.664164 0.597918 0.000000 31.664164 2.673333 0.000000 31.285067 1.635626 0.000000 30.653236 4.748749 0.000000 30.653236 3.711041 0.000000 30.653236 -3.552913 0.000000 30.842785 -0.439790 0.000000 30.905968 -1.477497 0.000000 30.653236 -2.515205 0.000000 30.653236 0.597918 0.000000 30.463688 1.635626 0.000000 30.400505 2.673333 0.000000 29.642309 4.748749 0.000000 29.642309 3.711041 0.000000 29.642309 -3.552913 0.000000 29.768675 -2.515205 0.000000 30.021408 -0.439790 0.000000 29.642309 -1.477497 0.000000 29.642309 0.597918 0.000000 29.642309 2.673333 0.000000 29.642309 1.635626 0.000000 28.378651 2.673333 0.000000 28.631382 4.748749 0.000000 28.631382 3.711041 0.000000 28.631382 -3.552913 0.000000 28.631382 -2.515205 0.000000 28.631382 -0.439790 0.000000 28.631382 -1.477497 0.000000 28.631382 0.597918 0.000000 28.631382 1.635626 0.000000 27.620455 2.673333 0.000000 27.620455 3.711041 0.000000 27.620455 4.748749 0.000000 27.620455 -1.477497 0.000000 27.620455 -3.552913 0.000000 27.620455 -2.515205 0.000000 27.620455 -0.439790 0.000000 27.241358 1.635626 0.000000 27.620455 0.597918 0.000000 26.672710 1.116772 0.000000 26.609528 2.673333 0.000000 26.609528 3.711041 0.000000 26.609528 4.748749 0.000000 26.862261 -1.477497 0.000000 26.609528 -3.552913 0.000000 26.483162 -2.515205 0.000000 26.609528 -0.439790 0.000000 25.977699 1.635626 0.000000 26.104065 0.597918 0.000000 25.851334 2.673333 0.000000 25.724968 3.711041 0.000000 25.598600 4.748749 0.000000 24.587675 4.748749 0.000000 25.598600 -1.477497 0.000000 25.598600 -3.552913 0.000000 25.598600 -2.515205 0.000000 25.219503 -0.439790 0.000000 24.966772 1.635626 0.000000 25.093138 0.597918 0.000000 24.840406 2.673333 0.000000 24.587675 3.711041 0.000000 23.576748 4.748749 0.000000 24.587675 -1.477497 0.000000 24.587675 -2.515205 0.000000 24.587675 -3.552913 0.000000 23.955845 -0.439790 0.000000 24.524490 0.079064 0.000000 24.208576 1.635626 0.000000 24.366533 0.857345 0.000000 23.576748 2.673333 0.000000 23.576748 3.711041 0.000000 22.565821 3.711041 0.000000 22.565821 4.748749 0.000000 23.829479 -1.477497 0.000000 23.576748 -3.552913 0.000000 23.134466 -1.996351 0.000000 23.703114 -2.515205 0.000000 23.197649 -0.439790 0.000000 23.387197 1.635626 0.000000 23.576748 0.597918 0.000000 22.818552 2.673333 0.000000 21.681259 3.711041 0.000000 21.554893 4.748749 0.000000 22.565821 -3.552913 0.000000 22.565821 -1.477497 0.000000 22.376270 -0.439790 0.000000 22.439453 -2.515205 0.000000 22.060356 0.597918 0.000000 21.933990 2.154480 0.000000 21.302160 2.673333 0.000000 22.565821 1.635626 0.000000 20.543966 2.673333 0.000000 20.543966 3.711041 0.000000 20.543966 4.748749 0.000000 21.554893 -3.552913 0.000000 21.554893 -0.439790 0.000000 21.554893 -1.477497 0.000000 21.554893 -2.515205 0.000000 21.049429 0.597918 0.000000 21.175795 1.635626 0.000000 19.912136 1.635626 0.000000 19.533039 4.748749 0.000000 19.533039 2.673333 0.000000 19.659405 3.711041 0.000000 20.543966 -3.552913 0.000000 20.543966 -0.439790 0.000000 20.796698 -1.477497 0.000000 20.417601 -2.515205 0.000000 18.522112 4.748749 0.000000 19.533039 -0.439790 0.000000 20.038502 0.597918 0.000000 18.901209 1.635626 0.000000 18.522112 3.711041 0.000000 18.774843 2.673333 0.000000 18.711660 -0.439790 0.000000 19.533039 -3.552913 0.000000 19.533039 -2.515205 0.000000 19.280306 -1.477497 0.000000 17.511185 4.748749 0.000000 18.522112 0.597918 0.000000 17.511185 3.711041 0.000000 18.143013 1.635626 0.000000 17.511185 2.673333 0.000000 16.500257 4.748749 0.000000 18.522112 -1.477497 0.000000 17.890282 -0.439790 0.000000 18.522112 -3.552913 0.000000 18.522112 -2.515205 0.000000 16.626623 3.711041 0.000000 17.511185 0.597918 0.000000 16.752989 2.673333 0.000000 17.321636 1.635626 0.000000 15.615696 3.711041 0.000000 15.489330 4.748749 0.000000 0.318904 4.748749 0.000000 17.763916 -1.477497 0.000000 17.132086 -0.439790 0.000000 17.511185 -3.552913 0.000000 17.384819 -2.515205 0.000000 15.742062 2.673333 0.000000 15.047050 3.192187 0.000000 16.310709 -0.439790 0.000000 16.500257 0.597918 0.000000 16.500257 1.635626 0.000000 15.489330 1.635626 0.000000 14.478403 3.711041 0.000000 14.478403 4.748749 0.000000 0.318904 3.716027 0.000000 1.336351 4.748749 0.000000 16.247526 -1.477497 0.000000 16.500257 -3.552913 0.000000 16.500257 -2.515205 0.000000 0.318904 2.676678 0.000000 15.489330 -1.477497 0.000000 14.478403 2.673333 0.000000 15.489330 -0.439790 0.000000 14.478403 1.635626 0.000000 15.489330 0.597918 0.000000 13.467476 3.711041 0.000000 13.467476 4.748749 0.000000 12.456549 4.748749 0.000000 0.995029 3.367368 0.000000 1.671153 4.058059 0.000000 2.347278 4.748749 0.000000 15.489330 -2.515205 0.000000 15.489330 -3.552913 0.000000 1.128950 2.259588 0.000000 0.318904 1.637298 0.000000 14.731134 -1.477497 0.000000 13.467476 2.673333 0.000000 13.657024 1.635626 0.000000 14.478403 -0.439790 0.000000 14.478403 0.597918 0.000000 12.582914 3.711041 0.000000 11.941458 3.931841 0.000000 11.445621 4.748749 0.000000 1.838554 3.193024 0.000000 2.598380 3.970886 0.000000 3.358205 4.748749 0.000000 2.344018 2.673333 0.000000 12.456549 2.673333 0.000000 14.478403 -3.552913 0.000000 14.604769 -2.515205 0.000000 1.928482 2.029416 0.000000 0.318904 0.597918 0.000000 0.993942 1.289723 0.000000 13.720207 -1.477497 0.000000 13.467476 0.597918 0.000000 12.835647 1.635626 0.000000 13.467476 -0.439790 0.000000 11.487731 3.212255 0.000000 11.036386 3.898556 0.000000 10.434694 4.748749 0.000000 3.019056 3.365139 0.000000 3.694094 4.056944 0.000000 4.369132 4.748749 0.000000 3.264240 2.650870 0.000000 2.679426 1.813231 0.000000 12.014496 1.787456 0.000000 11.707684 2.622483 0.000000 13.467476 -3.552913 0.000000 12.456549 -2.515205 0.000000 13.341110 -2.515205 0.000000 0.318904 -3.552913 0.000000 0.318904 -1.480842 0.000000 2.159525 0.902455 0.000000 0.318904 -0.441462 0.000000 2.077295 0.113161 0.000000 1.258773 0.351679 0.000000 12.456549 -1.477497 0.000000 11.655905 -1.036554 0.000000 12.456549 0.597918 0.000000 12.456549 -0.439790 0.000000 11.089385 2.580499 0.000000 10.694460 3.134312 0.000000 10.128919 3.867512 0.000000 9.423767 4.748749 0.000000 5.380059 4.748749 0.000000 4.179098 3.289319 0.000000 4.809143 3.937450 0.000000 4.098181 2.630512 0.000000 3.537742 1.839942 0.000000 2.977303 1.049372 0.000000 11.595822 0.640851 0.000000 11.216707 1.626453 0.000000 11.646273 -2.629267 0.000000 12.456549 -3.552913 0.000000 0.318904 -2.520190 0.000000 1.336351 -3.552913 0.000000 1.078729 -1.219325 0.000000 0.995029 -2.171533 0.000000 3.241260 0.372494 0.000000 2.825556 -0.058806 0.000000 1.668980 -0.785692 0.000000 10.989290 -2.168614 0.000000 11.300576 -1.583868 0.000000 8.599419 -1.943889 0.000000 11.162842 -0.632282 0.000000 11.595803 -0.044848 0.000000 10.738147 2.023452 0.000000 10.366466 2.506781 0.000000 9.907574 3.069252 0.000000 9.244436 3.819057 0.000000 8.412840 4.748749 0.000000 7.401913 4.748749 0.000000 6.390986 4.748749 0.000000 5.720569 3.843020 0.000000 4.804497 2.819322 0.000000 5.196733 3.222806 0.000000 4.413898 2.002445 0.000000 4.230324 1.154709 0.000000 3.750806 0.858369 0.000000 3.879935 0.324512 0.000000 10.429500 1.533955 0.000000 10.908081 0.270705 0.000000 10.738114 0.975704 0.000000 8.540306 -2.025250 0.000000 8.652853 -2.048186 0.000000 10.989017 -2.721789 0.000000 11.445621 -3.552913 0.000000 10.455894 -2.419858 0.000000 10.446943 -2.898237 0.000000 1.671153 -2.862223 0.000000 2.347278 -3.552913 0.000000 1.838554 -1.997188 0.000000 3.475894 -0.229189 0.000000 4.024883 -0.423753 0.000000 2.977303 -0.779069 0.000000 2.344018 -1.477497 0.000000 10.051512 -2.232398 0.000000 9.715125 -2.383574 0.000000 10.648663 -0.847280 0.000000 10.562194 -1.390391 0.000000 10.478851 -1.913878 0.000000 8.643053 -1.853281 0.000000 8.735895 -1.941354 0.000000 10.390161 -0.522904 0.000000 10.738309 -0.284200 0.000000 10.093810 1.940336 0.000000 9.696054 2.395316 0.000000 9.090786 3.022500 0.000000 8.378057 3.822600 0.000000 7.511294 3.823311 0.000000 6.615492 3.808706 0.000000 6.055872 3.096830 0.000000 5.116269 2.018
[...]
<CellData Scalars="Label">
<DataArray type="Int32" Name="Label" format="ascii">
0 0 0 0 0 0 0 0 0 0 0 0 0 0 0 0 0 0 0 0 0 0 0 0 0 0 0 0 0 0 0 0 0 0 0 0 0 0 0 0 0 0 0 0 0 0 0 0 0 0 0 0 0 0 0 0 0 0 0 0 0 0 0 0 0 0 0 0 0 0 0 0 0 0 0 0 0 0 0 0 0 0 0 0 0 0 0 0 0 0 0 0 0 0 0 0 0 0 0 0 0 0 0 0 0 0 0 0 0 0 0 0 0 0 0 0 0 0 0 0 0 0 0 0 0 0 0 0 0 0 0 0 0 0 0 0 0 0 0 0 0 0 0 0 0 0 0 0 0 0 0 0 0 0 0 0 0 0 0 0 0 0 0 0 0 0 0 0 0 0 0 0 0 0 0 0 0 0 0 0 0 0 0 0 0 0 0 0 0 0 0 0 0 0 0 0 0 0 0 0 0 0 0 0 0 0 0 0 0 0 0 0 0 0 0 0 0 0 0 0 0 0 0 0 0 0 0 0 0 0 0 0 0 0 0 0 0 0 0 0 0 0 0 0 0 0 0 0 0 0 0 0 0 0 0 0 0 0 0 0 0 0 0 0 0 0 0 0 0 0 0 0 0 0 0 0 0 0 0 0 0 0 0 0 0 0 0 0 0 0 0 0 0 0 0 0 0 0 0 0 0 0 0 0 0 0 0 0 0 0 0 0 0 0 0 0 0 0 0 0 0 0 0 0 0 0 0 0 0 0 0 0 0 0 0 0 0 0 0 0 0 0 0 0 0 0 0 0 0 0 0 0 0 0 0 0 0 0 0 0 0 0 0 0 0 0 0 0 0 0 0 0 0 0 0 0 0 0 0 0 0 0 0 0 0 0 0 0 0 0 0 0 0 0 0 0 0 0 0 0 0 0 0 0 0 0 0 0 0 0 0 0 0 0 0 0 0 0 0 0 0 0 0 0 0 0 0 0 0 0 0 0 0 0 0 0 0 0 0 0 0 0 0 0 0 0 0 0 0 0 0 0 0 0 0 0 0 0 0 0 0 0 0 0 0 0 0 0 0 0 0 0 0 0 0 0 0 0 0 0 0 0 0 0 0 0 0 0 0 0 0 0 0 0 0 0 0 0 0 0 0 0 0 0 0 0 0 0 0 0 0 0 0 0 0 0 0 0 0 0 0 0 0 0 0 0 0 0 0 0 0 0 0 0 0 0 0 0 0 0 0 0 0 0 0 0 0 0 0 0 0 0 0 0 0 0 0 0 0 0 0 0 0 0 0 0 0 0 0 0 0 0 0 0 0 0 0 0 0 0 0 0 0 0 0 0 0 0 0 0 0 0 0 0 0 0 0 0 0 0 0 0 0 0 0 0 0 0 0 0 0 0 0 0 0 0 0 0 0 0 0 0 0 0 0 0 0 0 0 0 0 0 0 0 0 0 0 0 0 0 0 0 0 0 0 0 0 0 0 0 0 0 0 0 0 0 0 0 0 0 0 0 0 0 0 0 0 0 0 0 0 0 0 0 0 0 0 0 0 0 0 0 0 0 0 0 0 0 0 0 0 0 0 0 0 0 0 0 0 0 0 0 0 0 0 0 0 0 0 0 0 0 0 0 0 0 0 0 0 0 0 0 0 0 0 0 0 0 0 0 0 0 0 0 0 0 0 0 0 0 0 0 0 0 0 0 0 0 0 0 0 0 0 0 0 0 0 0 0 0 0 0 0 0 0 0 0 0 0 0 0 0 0 0 0 0 0 0 0 0 0 0 0 0 0 0 0 0 0 0 0 0 0 0 0 0 0 0 0 0 0 0 0 0 0 0 0 0 0 0 0 0 0 0 0 0 0 0 0 0 0 0 0 0 0 0 0 0 0 0 0 0 0 0 0 0 0 0 0 0 0 0 0 0 0 0 0 0 0 0 0 0 0 0 0 0 0 0 0 0 0 0 0 0 0 0 0 0 0 0 0 0 0 0 0 0 0 0 0 0 0 0 0 0 0 0 0 0 0 0 0 0 0 0 0 0 0 0 0 0 0 0 0 0 0 0 0 0 0 0 0 0 0 0 0 0 0 0 0 0 0 0 0 0 0 0 0 0 0 0 0 0 0 0 0 0 0 0 0 0 0 0 0 0 0 0 0 0 0 0 0 0 0 0 0 0 0 0 0 0 0 0 0 0 0 0 0 0 0 0 0 0 0 0 0 0 0 0 0 0 0 0 0 0 0 0 0 0 0 0 0 0 0 0 0 0 0 0 0 0 0 0 0 0 0 0 0 0 0 0 0 0 0 0 0 0 0 0 0 0 0 0 0 0 0 0 0 0 0 0 0 0 0 0 0 0 0 0 0 0 0 0 0 0 0 0 0 0 0 0 0 0 0 0 0 0 0 0 0 0 0 0 0 0 0 0 0 0 0 0 0 0 0 0 0 0 0 0 0 0 0 0 0 0 0 0 0 0 0 0 0 0 0 0 0 0 0 0 0 0 0 0 0 0 0 0 0 0 0 0 0 0 0 0 0 0 0 0 0 0 0 0 0 0 0 0 0 0 0 0 0 0 0 0 0 0 0 0 0 0 0 0 0 0 0 0 0 0 0 0 0 0 0 0 0 0 0 0 0 0 0 0 0 0 0 0 0 0 0 0 0 0 0 0 0 0 0 0 0 0 0 0 0 0 0 0 0 0 0 0 0 0 0 0 0 0 0 0 0 0 0 0 0 0 0 0 0 0 0 0 0 0 0 0 0 0 0 0 0 0 0 0 0 0 0 0 0 0 0 0 0 0 0 0 0 0 0 0 0 0 0 0 0 0 0 4 4 4 4 4 4 4 4 4 4 4 4 4 4 4 4 4 4 4 4 4 4 4 4 4 4 4 4 4 4 4 4 4 4 4 3 3 3 3 3 3 3 3 3 3 3 3 3 3 3 3 3 3 3 3 3 3 3 3 3 3 3 3 3 3 3 3 3 3 3 3 3 3 3 3 3 3 3 3 3 3 3 3 3 3 3 3 3 3 3 3 3 3 3 3 3 3 3 3 3 3 3 3 3 3 3 3 2 2 2 2 2 2 2 2 1 1 1 1 1 1 1 1 
</DataArray>
<DataArray type="Float64" Name="u" NumberOfComponents="1" format="ascii">
1.7823957735050187e-03 3.9884630553172908e-02 3.6565445412515291e-03 2.6724399868100164e-02 2.9395724682401946e-02 4.4557465687812525e-01 4.1381244037844500e-01 4.3497319644010168e-01 3.6852832951943909e-01 3.2339282019708432e-01 3.6947191114441102e-01 3.9990456118411000e-01 1.8510468474335830e-02 1.1232541909309755e-01 3.6861456688297189e-01 2.8467824722539603e-01 8.7612586325171327e-02 9.4379331445040474e-02 6.1675621553018672e-02 2.0507375960037100e-01 1.5668325537399136e-01 2.6949561348212980e-01 1.4196965741636469e-01 4.2464063437423427e-02 1.3853344390443578e-01 3.9279995858985936e-02 2.2439621857736991e-01 2.2366468075295476e-01 2.8900728769378620e-01 3.9025626192357454e-01 4.4880513202197758e-01 1.1833430928927666e-01 1.6082369559399062e-01 2.0177413104522046e-01 3.0685908299542108e-01 2.8838060931952053e-01 5.4771455306549999e-01 5.4497370264519930e-02 1.3976622916036924e-01 4.2947023281982177e-01 8.9407063212681936e-02 9.4121252044624432e-02 3.8641895462993076e-01 2.2883732384155353e-01 2.4491924778299801e-01 2.0329803203204622e-01 5.8461498944453377e-02 1.4768646066061683e-01 6.6657849320951215e-02 2.6318224887057040e-01 5.1091801443370131e-02 4.6742209680772118e-01 5.5578366176538430e-01 5.8159159784335546e-01 6.4261351744098902e-02 7.2962881036722077e-02 2.4290936040268735e-02 1.8205536606821765e-01 3.9474299758865419e-02 1.0521106855199477e-01 1.5633448376547850e-02 5.8003941790487956e-02 4.6203580736509475e-01 3.9367821918886586e-01 3.8352808663224092e-01 2.6353670609312785e-01 1.0760749693803512e-01 2.9667658842670613e-02 2.0965247536902912e-01 9.3970047554143669e-03 6.0173519202807810e-03 1.7829508004925644e-02 6.1849222348054367e-01 3.4847108397861271e-01 5.1203647594011481e-01 9.5154289024050112e-03 2.4727212580473318e-01 2.6832038887837882e-02 1.5184812065974357e-02 4.8107008596920170e-01 1.5062357931228382e-01 4.9148113566916618e-01 1.2150645839929111e-01 5.6399152012858285e-02 4.8021088993539546e-02 7.8799474447676521e-01 1.1489599921479750e+00 9.8307764781742524e-01 1.0385245426014158e+00 9.3008692583259678e-01 9.2838922186886597e-01 8.4886930803836380e-01 7.8220364403960352e-01 7.1223192138828617e-01 9.1953555953389932e-01 8.8449197226783438e-01 7.9207801448739845e-01 7.8406271321685428e-01 7.8080887933114718e-01 7.4036187509243090e-01 1.2420763263240338e+00 7.3674530830133755e-01 7.4643999037548103e-01 7.7881629147320108e-01 8.9262357967017447e-01 9.3187488049323619e-01 8.9769835735640191e-01 7.2102503289217057e-01 7.8134719958495880e-01 6.1974989879274189e-01 6.2072429750898594e-01 8.3366881394504677e-01 8.3791899823641969e-01 6.5290934310467952e-01 5.3642738424436209e-01 1.8353447058919059e-01 1.0312447992990316e-01 8.3331566427369652e-01 7.2823943674836467e-01 8.0186579656680546e-01 9.6483940209774732e-01 8.5437142687665024e-01 8.8422565535219333e-01 6.6642277818575213e-01 8.5129745578934912e-01 1.0112305789677083e+00 9.3476104001479232e-01 8.6204754536803452e-01 1.0013097212469804e+00 5.2688599752856391e-01 4.6316528392983441e-01 5.2694762568050613e-01 5.7701577279339555e-01 5.0545172827174834e-01 6.2167926676761232e-01 7.0979229511576336e-01 8.1904071037392567e-01 6.4367224594791439e-01 8.9338935713171685e-01 8.4752658820066018e-01 9.3146012050304239e-01 6.5712127861401060e-01 7.5183731104598850e-01 4.0714291628724053e-01 4.2753776132140348e-01 4.3226689348251335e-01 5.0401066347395440e-01 3.9445982758814713e-01 6.0185485640001679e-01 5.8718753359399267e-01 6.9722946634198579e-01 6.0047307964128660e-01 6.4834504778519353e-01 9.9860038220918335e-01 2.9004964799988431e-01 2.4862225685259731e-01 4.1708407184885754e-01 7.1204646807193583e-01 5.8962527719003854e-01 7.6599512865699548e-01 5.2154136592629274e-01 5.8752492016923485e-01 5.7034414149805635e-01 7.3385449470259811e-01 6.2018554965877504e-01 5.0529939905674115e-01 4.5549654350678731e-01 5.5241867645800768e-01 6.2770554187601035e-01 8.6825506584478451e-01 9.7552993301063418e-01 6.1766689882119263e-01 6.9424305883358639e-01 5.3064223155693790e-01 6.4049281389912061e-01 5.3897829510334971e-01 5.9282362692108959e-01 5.5085269676116688e-01 6.0210490152814278e-01 7.0820471648754979e-01 9.1297589168497073e-01 8.1735872021901246e-01 7.7866587814181232e-01 7.8813004216493232e-01 9.8144227831917519e-01 1.0967303441142326e+00 8.5223167809837619e-01 9.0586703689918724e-01 8.8792887858165293e-01 1.0460610917295752e+00 1.0252504682492369e+00 1.1753982964537979e+00 1.1860264258035516e+00 1.1318269841197091e+00 1.1163355048380947e+00 1.1737739353401095e+00 1.0044666341309463e+00 9.8235429518820072e-01 1.1149094790019147e+00 6.0133430244533459e-01 7.4931372018014653e-01 1.1514144095537626e+00 1.1867313117900746e+00 1.0983279787272702e+00 1.0620682398137529e+00 9.3808260557506506e-01 1.0815680454641763e+00 9.7861352641174215e-01 9.4782658515166518e-01 7.1865337517644723e-01 8.3223777478031935e-01 7.1761975864947036e-01 7.7586700559734045e-01 6.5283086909626620e-01 5.2748024388551229e-01 4.8552271447779372e-01 5.5303284513562634e-01 5.0810605524035046e-01 4.7346709189642683e-01 1.0471118679403910e+00 2.8465785225137769e-01 2.1008215308070483e-01 1.6232629391464914e-01 1.9860896391153626e-01 3.2267878781167525e-01 3.7397316680806370e-01 4.9066590720414277e-01 6.0469445403555000e-01 5.3700652364746793e-01 5.3352460201736418e-01 3.2725258250352895e-01 1.6327132123714500e-01 2.9412383816175647e-01 4.6810250856283458e-01 4.3270286928270607e-01 3.6672704235433545e-01 3.6748668058872680e-01 4.2453804446583965e-01 5.4681564398425353e-01 3.6828324996123168e-01 3.6286529422045455e-01 4.1725832629420473e-01 3.8007506451123241e-01 5.2234131597267885e-01 4.0073748818316257e-01 4.6158020799726751e-01 4.2279132708975115e-01 6.3934462090703592e-01 3.1190980578391586e-01 3.9184840125152054e-01 3.3713723219382707e-01 3.3572598685205990e-01 2.0357384250265151e-01 2.3697830136132350e-01 1.3705603224472443e-01 5.6372384134658497e-02 5.0041346730006556e-03 5.9420173487316971e-02 1.0017900483293066e-01 3.2754681707273192e-02 3.3271730669899607e-02 6.2732055684451310e-02 2.1505752289722031e-02 2.3002882163884941e-03 1.2531980879655855e-01 8.3261836525987343e-02 6.3409399378528020e-02 1.0389536957440847e-02 1.1308854384310804e-01 7.3707464990436719e-02 2.5117716425279807e-01 1.9875739208139775e-01 2.8466777417972722e-01 2.6000896317751276e-01 2.3667393123445235e-01 1.5831530893977996e-01 3.3880129058063546e-01 2.0452358797299758e-01 1.3031983226198535e-01 8.9969977735308682e-02 1.0185651014545510e-01 2.6263656624544401e-01 8.9667316110573062e-02 4.0442952308416713e-02 3.3081860167491137e-02 2.2506820082121717e-01 3.1299359917422565e-01 2.8946729005652849e-01 1.9989204411851808e-01 2.6613489424324765e-01 4.0626960774269250e-01 2.4446610031979935e-01 3.9878616243140730e-01 3.5238621701998768e-01 2.9342366609769022e-01 3.5008328876540107e-01 3.8744495789280020e-01 2.7816875527439922e-01 3.2890190484925141e-01 4.5010557714417471e-01 6.6928804178938939e-01 7.1437431727472722e-01 5.8730977080120894e-01 4.6271480649693386e-01 5.0155776795692752e-01 4.0171925748198889e-01 1.4546214402324009e-01 1.1264274212702927e-01 1.1040220985859341e-01 3.1318034977414955e-01 2.2676782274327129e-01 2.6190154776850461e-01 4.2082579775966605e-01 1.6559726286408272e-01 2.0431943603465397e-01 1.2476239285686960e-01 1.7569204370286740e-01 3.0077794736646912e-01 2.4115944922328443e-02 2.5542257458889484e-01 1.9067283408419639e-01 1.4327535382029505e-01 7.6821419993798296e-02 6.0838082024016742e-02 1.2130314717247118e-01 1.5842260557255015e+00 1.5450118134151767e+00 1.5142681387302754e+00 1.4229524954990524e+00 1.4462809898068647e+00 1.2712600798312716e+00 1.1094383381285440e+00 9.8656977995892081e-01 1.1489209108652492e+00 1.0761223436983438e+00 9.9961249348525194e-01 1.0149580128173588e+00 1.2671474999091088e+00 1.2616713008095748e+00 9.5778926091545868e-01 8.2189483677145492e-01 7.8684451785857612e-01 6.8626567933992189e-01 1.1913665178134294e+00 8.9459885356344238e-01 7.1691692925343919e-01 6.9077948615133344e-01 8.3192818564197801e-01 7.5154223691981215e-01 7.9490086037976315e-01 9.9879234924002469e-01 6.4654444088890894e-01 6.2842320863691548e-01 7.1786674238841264e-01 8.8575854742060045e-01 9.6887760487311081e-01 9.6195218907159896e-01 3.4750985099410636e-01 6.3092814252292850e-01 5.6856934044322871e-01 8.0409314304330903e-01 4.5615091642923311e-01 7.2091841018311120e-01 7.0981909772192786e-01 8.4388259408507815e-01 4.3273833049902177e-01 6.3782008504529175e-01 6.1995240142618069e-01 7.2817722264885953e-01 5.8116949472248158e-01 6.8135576751043703e-02 1.1722158325346932e+00 1.0307585196262559e+00 9.9671401842324414e-01 9.5200257144781819e-01 1.2124077681116110e+00 1.1445248461106470e+00 1.2152372385347352e+00 1.2748258987892784e+00 1.3349418620998530e+00 1.0631001009045549e+00 1.0197702310930246e+00 1.1144740910816029e+00 4.5432909091131612e-01 4.3546008914538081e-01 3.7816741731600140e-01 5.0820826016994225e-01 5.7887797422521059e-01 5.5732086907355949e-01 5.2428195435826497e-01 4.6305488126522587e-01 4.6071861748246551e-01 6.5493433783650334e-01 6.6788299496661718e-01 2.2681575223293701e-01 1.4449648281275160e-01 4.4411713390439511e-01 9.4303302564504621e-01 1.0192802333365210e+00 9.6115968275400410e-01 1.0058415418589870e+00 9.8630624028862801e-01 8.7776370068550835e-01 9.1682294498566852e-01 8.8052149667679869e-01 8.3371144570275590e-01 1.2900005841127773e+00 1.2248633853610087e+00 1.1339910872825394e+00 1.0733526026198617e+00 1.4550736624950891e+00 1.4355496237281957e+00 1.5331284447503721e+00 1.5412930703468009e+00 1.5889038656349956e+00 1.2003589295272608e+00 1.2002087066674343e+00 1.3266071443154668e+00 3.1385131219666362e-01 1.3625414029326513e-01 2.6789169691318282e-01 1.4431779738829253e-01 3.2347144012949303e-01 7.5367940584990911e-02 7.1975168112606236e-02 3.2524325058508136e-01 2.6580159794092206e-01 4.3583362761523392e-01 1.5001267189851220e+00 1.5092601729935957e+00 1.4249292718845323e+00 1.4590029352839504e+00 1.3915005205665891e+00 1.2986603064929505e+00 1.3705630275483573e+00 1.2932716991236199e+00 1.3215392856319288e+00 1.2196903110339639e+00 1.2093339284782423e+00 1.4795278453577234e+00 1.4737575220589412e+00 1.5861322686653248e+00 1.6225201531447748e+00 1.5300963436810910e+00 1.4773924510236469e+00 4.7904129068692969e-01 7.5141646995315933e-02 4.8778561069222048e-01 2.5734615456701920e-01 1.3949439460464927e-01 6.2290554174356715e-02 5.2953617656339635e-01 3.2021333780389932e-01 5.5456590752432855e-01 5.5066310394409945e-01 6.5419021596796234e-01 2.9465397734013710e-01 3.1962087875056433e-01 4.9687391162190835e-02 2.2960106016323389e-01 1.2727199462370736e-01 1.6174210077239297e+00 8.2379668727852864e-02 4.2164938697221671e-01 5.7843977087182386e-01 3.8948392346921867e-01 3.8810903211330916e-01 7.6316782852075127e-01 2.5735240513058144e-01 1.6498701051110349e+00 1.5983687717155561e+00 1.6148752247067599e+00 2.4168229321770526e-02 1.5378054317150700e+00 1.5699106994412571e+00 1.6511546338302439e+00 1.6242720183516481e+00 1.5742017578850704e+00 3.7203769507444612e-02 1.6701614614477495e-01 1.0580050474459635e-01 1.5505932101051148e-01 1.9534619115911867e-01 5.9006239722482805e-02 1.5365440488713168e-02 1.1657024443203563e-01 1.9112943636742850e-02 4.3701647445036546e-01 5.1631469633827609e-01 4.2850192806849885e-01 4.9257610464721885e-01 1.6021332279386430e-01 2.4381672805955371e-01 4.5403317120000691e-01 2.4950745908080377e-01 2.9228524586823834e-01 3.1318664917222622e-01 1.7960541691674464e-01 2.2713770084283125e-01 2.6657078607473084e-01 8.7700294247446886e-01 1.0734728652434689e+00 7.7333363662716814e-01 1.4064299091395105e-01 8.4896684983120113e-02 1.2527875015128714e-01 1.5896987478333707e-01 1.9867888785590981e-01 4.7725661386361118e-01 3.7455702110952888e-01 3.8498382340977838e-01 2.8072780310521095e-01 3.4586801499247388e-01 2.2828843423640749e-01 4.7947641880971570e-01 4.1156309084354176e-01 2.2639363201290835e-01 2.8748764704948004e-01 2.1330290821869569e-01 1.0560345534291796e-01 7.5092695402118326e-02 1.5560620347330101e-01 1.7307129980525976e-01 1.9053187559289242e-01 3.4874817914730238e-01 2.1270738978371749e-02 4.7487755939601903e-02 5.2648989512462125e-03 1.0737987204145760e-02 1.5095594115406454e+00 1.3978800148541797e+00 1.4896062864167630e+00 1.5569648088280257e+00 1.5352238901522086e+00 1.4795068726918199e+00 1.3760862635625104e+00 1.3574161422406505e+00 1.4638075340863677e+00 1.4307852307275251e+00 1.4399946317777772e+00 1.4911084640866750e+00 1.3920090397518652e+00 1.0302419302250612e+00 8.4343997628034550e-01 7.8535129727864517e-01 1.3152569988102241e+00 1.3491816844780136e+00 1.3167880473923290e+00 1.3840553136198870e+00 1.2677118563180056e+00 1.3116143468064569e+00 1.2900774449929828e+00 1.2659999707338638e+00 1.2127929263413264e+00 1.2647591688937230e+00 1.0509033054362329e+00 1.3974211336989995e+00 1.6485298604530101e+00 5.7244053889127477e-01 4.7156721553114794e-01 7.9994447331496410e-01 2.8909909490447083e-01 2.5240515117132250e-02 2.1503617083980658e-01 5.5413855324380346e-01 4.6153804228184803e-01 1.1486828237457133e-02 7.1737254744861131e-02 3.6927507230596235e-02 7.0014605782691683e-02 7.7700901489770158e-02 1.5541436304885141e+00 1.3961921333947029e+00 1.4739012130826554e+00 1.5364610984780909e+00 1.6010037673715307e+00 1.6502956470441419e+00 1.4903287257211502e+00 1.4915198219678980e+00 1.6132157517099692e+00 1.5847344565265260e+00 1.6178416333661221e+00 4.8210226825973201e-01 2.0695295744968482e-03 1.5558806677482104e+00 1.3224608475544635e+00 1.2815114329841466e+00 1.3933876416040425e+00 1.2565167160243076e+00 1.2635716356809312e+00 7.7368661944486816e-01 7.9235725260388401e-01 7.3334822031996749e-01 1.1591946051053186e+00 1.1920003890313964e+00 1.1604180409533358e+00 7.4387991890161864e-01 1.3656355814783145e+00 1.4076111876442314e+00 1.4020824956167339e+00 1.4778462907663634e+00 1.1980457382885787e+00 1.2372406920111430e+00 1.3002808426128236e+00 1.1756259016864710e+00 1.1254725519013211e+00 1.3307471087358334e+00 1.4424514923672678e+00 1.3654994549274013e+00 1.4552375822000108e+00 1.5269109077435301e+00 1.5255859002771957e+00 1.1426292484892455e+00 1.0921784054003594e+00 1.2907950786630353e+00 1.4425610754301978e+00 1.3923915699435074e+00 1.3671616538116185e+00 1.2928767742358880e+00 1.3574601981156686e+00 1.3315434938512496e+00 1.3382079358117616e+00 1.4380447781735288e+00 1.4278216924628839e+00 8.8124501646600639e-01 8.0270762400911544e-01 9.5751878627772702e-01 1.1316416386558903e+00 1.0427391809922908e+00 1.2242051662393956e+00 1.2109501464551637e+00 8.3115208300548127e-01 8.4258849787817924e-01 1.4167997789978892e+00 1.0942961842893622e+00 1.3454536840673894e+00 1.0924959535700707e+00 1.1637049397785912e+00 1.0543191794936160e+00 1.2443592278871103e+00 1.1885284363875144e+00 9.5942281095643889e-01 1.1175251031156197e+00 1.0729702021808099e+00 1.1829786143601444e+00 8.6860945582927740e-01 8.8466071109602140e-01 9.4975796561960912e-01 1.1177660489487726e+00 1.0895090739790945e+00 7.6182017987455819e-01 6.2638433128637283e-01 5.5738091180812033e-01 7.0909401152776341e-01 9.7868596087066939e-01 6.2114827871379263e-01 5.6957411411302605e-01 5.0575172278815861e-01 3.7201134410672410e-01 6.7801034551407935e-01 8.5604796507823000e-01 8.9530788632280534e-01 2.5680224398648244e-01 4.1863175304622002e-01 3.3871572235091746e-01 5.3033763767003017e-01 5.5419274993307299e-01 1.2280526259145079e+00 1.2757596182078879e+00 1.1704735577008620e+00 1.2909024327846583e+00 9.0483807265554561e-01 1.1169142372112366e+00 1.0920362228130691e+00 1.1179822320887220e+00 1.1430467668959556e+00 1.2247125660717244e+00 1.0594298561504876e+00 9.5883647533418614e-01 1.0739344344741553e+00 1.0163295200736648e+00 8.5820550649098681e-01 8.9164947591536492e-01 8.3680711958930876e-01 9.5236795625800497e-01 9.5259874063600991e-01 9.8718517137674222e-01 9.4162134087815730e-01 9.6749253600801244e-01 9.3207009796296691e-01 9.3062823672597927e-01 9.4253719290768689e-01 8.7201114781221134e-01 9.1692815972946695e-01 9.0482538484965691e-01 1.1978290079964475e+00 1.2609448252893105e+00 1.2358184786327426e+00 9.1286351063563820e-01 1.0934095984788890e+00 1.1123002642278963e+00 1.1085602678062287e+00 1.0653024492167358e+00 1.0678140937215967e+00 1.0716651103307695e+00 1.1689968172906546e+00 1.1481444752202137e+00 1.0914043571681100e+00 1.1270387989921735e+00 1.0541031199456463e+00 9.7266423644036770e-01 1.0122407212250688e+00 9.8438739147264731e-01 1.0462099830092735e+00 1.0858770002367679e+00 1.0561658352074446e+00 9.6496420481511291e-01 9.7977776613600409e-01 9.1779481418480002e-01 9.5513258273674095e-01 1.0217608323058498e+00 9.3103595837793274e-01 8.8100737593563327e-01 9.2549272920107861e-01 7.9893493098231638e-01 8.5934851417651426e-01 8.0673465923396837e-01 9.6186318861901277e-01 9.4844838950507149e-01 9.7121973372556603e-01 9.6714299056951969e-01 9.6232083607200336e-01 9.7979156907924381e-01 9.9414260867009852e-01 9.8572505733609161e-01 9.8923111794005258e-01 9.7953304846615619e-01 9.8290225682178112e-01 9.9304134810400968e-01 9.9594115226499969e-01 9.7545747700282848e-01 9.8442338149000219e-01 9.7327946815041488e-01 1.05961