<?xml version="1.0"?>
<VTKFile type="UnstructuredGrid"  byte_order="LittleEndian">
<UnstructuredGrid>
<Piece NumberOfPoints="1163" NumberOfCells=" 2328">
<Points>
<DataArray type="Float32" NumberOfComponents="3" format="ascii">
3.698888 -1.497023 0.000000 6.094991 0.886994 0.000000 0.317382 -3.616989 0.000000 31.146446 -3.616989 0.000000 0.317382 4.131345 0.000000 31.146446 4.131345 0.000000 3.694379 -1.406687 0.000000 3.680899 -1.317250 0.000000 3.658580 -1.229599 0.000000 3.627645 -1.144605 0.000000 3.588401 -1.063114 0.000000 3.541238 -0.985936 0.000000 3.486625 -0.913837 0.000000 3.425105 -0.847534 0.000000 3.357289 -0.787686 0.000000 3.283851 -0.734887 0.000000 3.205520 -0.689663 0.000000 3.123076 -0.652463 0.000000 3.037338 -0.623657 0.000000 2.949158 -0.603530 0.000000 2.859412 -0.592283 0.000000 2.768992 -0.590029 0.000000 2.678797 -0.596788 0.000000 2.589723 -0.612494 0.000000 2.502656 -0.636991 0.000000 2.418460 -0.670035 0.000000 2.337973 -0.711299 0.000000 2.261994 -0.760371 0.000000 2.191279 -0.816764 0.000000 2.126531 -0.879918 0.000000 2.068392 -0.949205 0.000000 2.017441 -1.023937 0.000000 1.974183 -1.103370 0.000000 1.939050 -1.186716 0.000000 1.912390 -1.273146 0.000000 1.894468 -1.361800 0.000000 1.885463 -1.451799 0.000000 1.885463 -1.542247 0.000000 1.894468 -1.632245 0.000000 1.912390 -1.720900 0.000000 1.939050 -1.807330 0.000000 1.974183 -1.890675 0.000000 2.017441 -1.970109 0.000000 2.068392 -2.044841 0.000000 2.126531 -2.114128 0.000000 2.191279 -2.177282 0.000000 2.261994 -2.233675 0.000000 2.337973 -2.282747 0.000000 2.418460 -2.324011 0.000000 2.502656 -2.357055 0.000000 2.589723 -2.381552 0.000000 2.678797 -2.397258 0.000000 2.768992 -2.404017 0.000000 2.859412 -2.401762 0.000000 2.949158 -2.390516 0.000000 3.037338 -2.370389 0.000000 3.123076 -2.341583 0.000000 3.205520 -2.304383 0.000000 3.283851 -2.259159 0.000000 3.357289 -2.206360 0.000000 3.425105 -2.146512 0.000000 3.486625 -2.080209 0.000000 3.541238 -2.008110 0.000000 3.588401 -1.930931 0.000000 3.627645 -1.849441 0.000000 3.658580 -1.764447 0.000000 3.680899 -1.676796 0.000000 3.694379 -1.587358 0.000000 6.090889 0.969166 0.000000 6.078627 1.050522 0.000000 6.058325 1.130253 0.000000 6.030186 1.207566 0.000000 5.994488 1.281692 0.000000 5.951587 1.351897 0.000000 5.901909 1.417480 0.000000 5.845948 1.477792 0.000000 5.784260 1.532232 0.000000 5.717458 1.580259 0.000000 5.646206 1.621397 0.000000 5.571212 1.655235 0.000000 5.493222 1.681439 0.000000 5.413010 1.699746 0.000000 5.331374 1.709977 0.000000 5.249125 1.712028 0.000000 5.167080 1.705880 0.000000 5.086055 1.691593 0.000000 5.006856 1.669309 0.000000 4.930268 1.639251 0.000000 4.857055 1.601717 0.000000 4.787941 1.557079 0.000000 4.723617 1.505781 0.000000 4.664719 1.448334 0.000000 4.611834 1.385308 0.000000 4.565487 1.317330 0.000000 4.526139 1.245074 0.000000 4.494180 1.169260 0.000000 4.469929 1.090640 0.000000 4.453627 1.009997 0.000000 4.445435 0.928131 0.000000 4.445435 0.845857 0.000000 4.453627 0.763991 0.000000 4.469929 0.683347 0.000000 4.494180 0.604728 0.000000 4.526139 0.528914 0.000000 4.565487 0.456658 0.000000 4.611834 0.388680 0.000000 4.664719 0.325654 0.000000 4.723617 0.268206 0.000000 4.787941 0.216909 0.000000 4.857055 0.172271 0.000000 4.930268 0.134737 0.000000 5.006856 0.104678 0.000000 5.086055 0.082395 0.000000 5.167080 0.068108 0.000000 5.249125 0.061960 0.000000 5.331374 0.064011 0.000000 5.413010 0.074241 0.000000 5.493222 0.092549 0.000000 5.571212 0.118752 0.000000 5.646206 0.152591 0.000000 5.717458 0.193728 0.000000 5.784260 0.241756 0.000000 5.845948 0.296196 0.000000 5.901909 0.356507 0.000000 5.951587 0.422091 0.000000 5.994488 0.492295 0.000000 6.030186 0.566422 0.000000 6.058325 0.643735 0.000000 6.078627 0.723466 0.000000 6.090889 0.804821 0.000000 1.311868 -3.616989 0.000000 2.306354 -3.616989 0.000000 3.300840 -3.616989 0.000000 4.295326 -3.616989 0.000000 5.289812 -3.616989 0.000000 6.284298 -3.616989 0.000000 7.278784 -3.616989 0.000000 8.273270 -3.616989 0.000000 9.267756 -3.616989 0.000000 10.262241 -3.616989 0.000000 11.256727 -3.616989 0.000000 12.251214 -3.616989 0.000000 13.245700 -3.616989 0.000000 14.240186 -3.616989 0.000000 15.234672 -3.616989 0.000000 16.229156 -3.616989 0.000000 17.223642 -3.616989 0.000000 18.218130 -3.616989 0.000000 19.212616 -3.616989 0.000000 20.207102 -3.616989 0.000000 21.201588 -3.616989 0.000000 22.196074 -3.616989 0.000000 23.190559 -3.616989 0.000000 24.185045 -3.616989 0.000000 25.179531 -3.616989 0.000000 26.174017 -3.616989 0.000000 27.168503 -3.616989 0.000000 28.162989 -3.616989 0.000000 29.157475 -3.616989 0.000000 30.151960 -3.616989 0.000000 0.317382 3.162803 0.000000 0.317382 2.194261 0.000000 0.317382 1.225720 0.000000 0.317382 0.257178 0.000000 0.317382 -0.711364 0.000000 0.317382 -1.679906 0.000000 0.317382 -2.648448 0.000000 31.146446 -2.648448 0.000000 31.146446 -1.679906 0.000000 31.146446 -0.711364 0.000000 31.146446 0.257178 0.000000 31.146446 1.225720 0.000000 31.146446 2.194261 0.000000 31.146446 3.162803 0.000000 30.151960 4.131345 0.000000 29.157475 4.131345 0.000000 28.162989 4.131345 0.000000 27.168503 4.131345 0.000000 26.174017 4.131345 0.000000 25.179531 4.131345 0.000000 24.185045 4.131345 0.000000 23.190559 4.131345 0.000000 22.196074 4.131345 0.000000 21.201588 4.131345 0.000000 20.207102 4.131345 0.000000 19.212616 4.131345 0.000000 18.218130 4.131345 0.000000 17.223642 4.131345 0.000000 16.229156 4.131345 0.000000 15.234672 4.131345 0.000000 14.240186 4.131345 0.000000 13.245700 4.131345 0.000000 12.251214 4.131345 0.000000 11.256727 4.131345 0.000000 10.262241 4.131345 0.000000 9.267756 4.131345 0.000000 8.273270 4.131345 0.000000 7.278784 4.131345 0.000000 6.284298 4.131345 0.000000 5.289812 4.131345 0.000000 4.295326 4.131345 0.000000 3.300840 4.131345 0.000000 2.306354 4.131345 0.000000 1.311868 4.131345 0.000000 4.532039 0.382636 0.000000 3.645791 -0.984205 0.000000 4.707512 0.189602 0.000000 3.364698 -0.697553 0.000000 9.689549 -2.767923 0.000000 8.770513 3.270095 0.000000 17.732233 3.276631 0.000000 20.716492 3.277110 0.000000 26.589417 3.333108 0.000000 12.773605 -2.769936 0.000000 23.687899 -2.755734 0.000000 15.732350 -2.755615 0.000000 3.507335 -0.822456 0.000000 27.665745 -2.755739 0.000000 19.709715 -2.755705 0.000000 13.677520 3.311470 0.000000 7.913826 -2.747308 0.000000 23.701078 3.277756 0.000000 1.142725 1.684713 0.000000 30.307665 0.741449 0.000000 10.722054 3.318016 0.000000 5.805402 -2.834679 0.000000 3.779143 -1.546360 0.000000 3.685725 -1.923674 0.000000 3.745647 -1.739950 0.000000 3.765094 -1.350294 0.000000 3.716286 -1.156824 0.000000 25.676760 -2.792197 0.000000 15.657258 3.315133 0.000000 17.720823 -2.755749 0.000000 21.698643 -2.755669 0.000000 1.991564 -0.938548 0.000000 1.974150 -2.078243 0.000000 3.516130 -2.178179 0.000000 1.817008 -1.299842 0.000000 1.813925 -1.792993 0.000000 6.734046 3.373487 0.000000 3.798083 3.270095 0.000000 30.355803 -1.191466 0.000000 2.151492 -2.262177 0.000000 28.566395 3.340639 0.000000 3.291599 -2.374911 0.000000 2.816155 -2.481196 0.000000 2.409145 -2.437791 0.000000 0.988987 -0.302492 0.000000 2.179333 -0.727323 0.000000 0.976329 -1.012298 0.000000 1.953191 3.402280 0.000000 1.047628 -1.773275 0.000000 30.338797 2.650186 0.000000 29.666704 -2.661123 0.000000 1.046370 0.640730 0.000000 1.666073 0.139966 0.000000 2.817534 -0.508571 0.000000 2.630700 -0.533524 0.000000 3.013581 -0.534889 0.000000 2.432493 -0.561939 0.000000 7.603983 3.341548 0.000000 8.200773 2.626020 0.000000 7.116612 2.661548 0.000000 5.792452 1.614098 0.000000 5.926160 1.496100 0.000000 6.507884 2.726061 0.000000 6.985624 2.104882 0.000000 6.076533 1.275544 0.000000 6.411981 2.121547 0.000000 6.183679 3.075429 0.000000 5.193761 1.768023 0.000000 5.025904 1.753281 0.000000 4.857503 1.673078 0.000000 5.370249 1.767482 0.000000 5.553871 1.737752 0.000000 7.456318 2.174852 0.000000 7.233701 1.757674 0.000000 7.728091 1.759165 0.000000 7.475803 1.342671 0.000000 7.992477 1.321529 0.000000 7.707248 0.865330 0.000000 8.278501 0.841774 0.000000 6.168850 0.843316 0.000000 6.150422 1.013117 0.000000 7.971392 0.351915 0.000000 8.596354 0.319194 0.000000 8.918465 0.874448 0.000000 9.273941 0.286770 0.000000 7.412601 0.395514 0.000000 6.074187 0.499008 0.000000 7.666740 -0.099245 0.000000 7.089818 -0.099195 0.000000 7.365090 -0.530450 0.000000 6.871907 -0.543224 0.000000 5.792452 0.159890 0.000000 5.929408 0.273183 0.000000 7.905831 -0.584672 0.000000 9.649107 0.932527 0.000000 10.026438 0.269623 0.000000 10.429997 0.964731 0.000000 10.862942 0.265934 0.000000 11.283634 0.998852 0.000000 11.734692 0.241374 0.000000 7.100830 -0.955481 0.000000 6.604369 -0.936079 0.000000 5.291217 -0.010881 0.000000 5.554910 0.038109 0.000000 5.105442 0.000397 0.000000 4.947237 0.060181 0.000000 11.156259 -0.450247 0.000000 12.184121 1.025492 0.000000 12.652122 0.234638 0.000000 6.817568 -1.412152 0.000000 6.992151 1.372399 0.000000 6.925136 0.317046 0.000000 6.422386 -0.498195 0.000000 6.167323 -0.864954 0.000000 9.680013 -0.475075 0.000000 6.002617 -0.485563 0.000000 5.806681 -0.806075 0.000000 5.681866 -0.516201 0.000000 5.471632 -0.750158 0.000000 5.612552 -1.073701 0.000000 5.297584 -1.022525 0.000000 5.170094 -0.744683 0.000000 5.020743 -0.963104 0.000000 4.926293 -0.737390 0.000000 4.795013 -0.893188 0.000000 4.844083 -1.114558 0.000000 4.724367 -0.706193 0.000000 4.601504 -0.838985 0.000000 4.539571 -0.677011 0.000000 4.411674 -0.805614 0.000000 4.375940 -0.646359 0.000000 4.478420 -0.540163 0.000000 4.328162 -0.514597 0.000000 4.236259 -0.615032 0.000000 4.191712 -0.489284 0.000000 4.275332 -0.392454 0.000000 4.153299 -0.371940 0.000000 4.226289 -0.281255 0.000000 4.113017 -0.266064 0.000000 4.041788 -0.350682 0.000000 4.003611 -0.249283 0.000000 4.071916 -0.165642 0.000000 3.966964 -0.151521 0.000000 4.031523 -0.070667 0.000000 3.930668 -0.056088 0.000000 3.994511 0.020851 0.000000 3.910325 0.049331 0.000000 4.413769 0.625290 0.000000 3.86523
[...]
<CellData Scalars="Label">
<DataArray type="Int32" Name="Label" format="ascii">
1 1 1 1 1 1 1 1 1 1 1 1 1 1 1 1 1 1 1 1 1 1 1 1 1 1 1 1 1 1 1 1 1 1 1 1 1 1 1 1 1 1 1 1 1 1 1 1 1 1 1 1 1 1 1 1 1 1 1 1 1 1 1 1 1 1 1 1 1 1 1 1 1 1 1 1 1 1 1 1 1 1 1 1 1 1 1 1 1 1 1 1 1 1 1 1 1 1 1 1 1 1 1 1 1 1 1 1 1 1 1 1 1 1 1 1 1 1 1 1 1 1 1 1 1 1 1 1 1 1 1 1 1 1 1 1 1 1 1 1 1 1 1 1 1 1 1 1 1 1 1 1 1 1 1 1 1 1 1 1 1 1 1 1 1 1 1 1 1 1 1 1 1 1 1 1 1 1 1 1 1 1 1 1 1 1 1 1 1 1 1 1 1 1 1 1 1 1 1 1 1 1 1 1 1 1 1 1 1 1 1 1 1 1 1 1 1 1 1 1 1 1 1 1 1 1 1 1 1 1 1 1 1 1 1 1 1 1 1 1 1 1 1 1 1 1 1 1 1 1 1 1 1 1 1 1 1 1 1 1 1 1 1 1 1 1 1 1 1 1 1 1 1 1 1 1 1 1 1 1 1 1 1 1 1 1 1 1 1 1 1 1 1 1 1 1 1 1 1 1 1 1 1 1 1 1 1 1 1 1 1 1 1 1 1 1 1 1 1 1 1 1 1 1 1 1 1 1 1 1 1 1 1 1 1 1 1 1 1 1 1 1 1 1 1 1 1 1 1 1 1 1 1 1 1 1 1 1 1 1 1 1 1 1 1 1 1 1 1 1 1 1 1 1 1 1 1 1 1 1 1 1 1 1 1 1 1 1 1 1 1 1 1 1 1 1 1 1 1 1 1 1 1 1 1 1 1 1 1 1 1 1 1 1 1 1 1 1 1 1 1 1 1 1 1 1 1 1 1 1 1 1 1 1 1 1 1 1 1 1 1 1 1 1 1 1 1 1 1 1 1 1 1 1 1 1 1 1 1 1 1 1 1 1 1 1 1 1 1 1 1 1 1 1 1 1 1 1 1 1 1 1 1 1 1 1 1 1 1 1 1 1 1 1 1 1 1 1 1 1 1 1 1 1 1 1 1 1 1 1 1 1 1 1 1 1 1 1 1 1 1 1 1 1 1 1 1 1 1 1 1 1 1 1 1 1 1 1 1 1 1 1 1 1 1 1 1 1 1 1 1 1 1 1 1 1 1 1 1 1 1 1 1 1 1 1 1 1 1 1 1 1 1 1 1 1 1 1 1 1 1 1 1 1 1 1 1 1 1 1 1 1 1 1 1 1 1 1 1 1 1 1 1 1 1 1 1 1 1 1 1 1 1 1 1 1 1 1 1 1 1 1 1 1 1 1 1 1 1 1 1 1 1 1 1 1 1 1 1 1 1 1 1 1 1 1 1 1 1 1 1 1 1 1 1 1 1 1 1 1 1 1 1 1 1 1 1 1 1 1 1 1 1 1 1 1 1 1 1 1 1 1 1 1 1 1 1 1 1 1 1 1 1 1 1 1 1 1 1 1 1 1 1 1 1 1 1 1 1 1 1 1 1 1 1 1 1 1 1 1 1 1 1 1 1 1 1 1 1 1 1 1 1 1 1 1 1 1 1 1 1 1 1 1 1 1 1 1 1 1 1 1 1 1 1 1 1 1 1 1 1 1 1 1 1 1 1 1 1 1 1 1 1 1 1 1 1 1 1 1 1 1 1 1 1 1 1 1 1 1 1 1 1 1 1 1 1 1 1 1 1 1 1 1 1 1 1 1 1 1 1 1 1 1 1 1 1 1 1 1 1 1 1 1 1 1 1 1 1 1 1 1 1 1 1 1 1 1 1 1 1 1 1 1 1 1 1 1 1 1 1 1 1 1 1 1 1 1 1 1 1 1 1 1 1 1 1 1 1 1 1 1 1 1 1 1 1 1 1 1 1 1 1 1 1 1 1 1 1 1 1 1 1 1 1 1 1 1 1 1 1 1 1 1 1 1 1 1 1 1 1 1 1 1 1 1 1 1 1 1 1 1 1 1 1 1 1 1 1 1 1 1 1 1 1 1 1 1 1 1 1 1 1 1 1 1 1 1 1 1 1 1 1 1 1 1 1 1 1 1 1 1 1 1 1 1 1 1 1 1 1 1 1 1 1 1 1 1 1 1 1 1 1 1 1 1 1 1 1 1 1 1 1 1 1 1 1 1 1 1 1 1 1 1 1 1 1 1 1 1 1 1 1 1 1 1 1 1 1 1 1 1 1 1 1 1 1 1 1 1 1 1 1 1 1 1 1 1 1 1 1 1 1 1 1 1 1 1 1 1 1 1 1 1 1 1 1 1 1 1 1 1 1 1 1 1 1 1 1 1 1 1 1 1 1 1 1 1 1 1 1 1 1 1 1 1 1 1 1 1 1 1 1 1 1 1 1 1 1 1 1 1 1 1 1 1 1 1 1 1 1 1 1 1 1 1 1 1 1 1 1 1 1 1 1 1 1 1 1 1 1 1 1 1 1 1 1 1 1 1 1 1 1 1 1 1 1 1 1 1 1 1 1 1 1 1 1 1 1 1 1 1 1 1 1 1 1 1 1 1 1 1 1 1 1 1 1 1 1 1 1 1 1 1 1 1 1 1 1 1 1 1 1 1 1 1 1 1 1 1 1 1 1 1 1 1 1 1 1 1 1 1 1 1 1 1 1 1 1 1 1 1 1 1 1 1 1 1 1 1 1 1 1 1 1 1 1 1 1 1 1 1 1 1 1 1 1 1 1 1 1 1 1 1 1 1 1 1 1 1 1 1 1 1 1 1 1 1 1 1 1 1 1 1 1 1 1 1 1 1 1 1 1 1 1 1 1 1 1 1 1 1 1 1 1 1 1 1 1 1 1 1 1 1 1 1 1 1 1 1 1 1 1 1 1 1 1 1 1 1 1 1 1 1 1 1 1 1 1 1 1 1 1 1 1 1 1 1 1 1 1 1 1 1 1 1 1 1 1 1 1 1 1 1 1 1 1 1 1 1 1 1 1 1 1 1 1 1 1 1 1 1 1 1 1 1 1 1 1 1 1 1 1 1 1 1 1 1 1 1 1 1 1 1 1 1 1 1 1 1 1 1 1 1 1 1 1 1 1 1 1 1 1 1 1 1 1 1 1 1 1 1 1 1 1 1 1 1 1 1 1 1 1 1 1 1 1 1 1 1 1 1 1 1 1 1 1 1 1 1 1 1 1 1 1 1 1 1 1 1 1 1 1 1 1 1 1 1 1 1 1 1 1 1 1 1 1 1 1 1 1 1 1 1 1 1 1 1 1 1 1 1 1 1 1 1 1 1 1 1 1 1 1 1 1 1 1 1 1 1 1 1 1 1 1 1 1 1 1 1 1 1 1 1 1 1 1 1 1 1 1 1 1 1 1 1 1 1 1 1 1 1 1 1 1 1 1 1 1 1 1 1 1 1 1 1 1 1 1 1 1 1 1 1 1 1 1 1 1 1 1 1 1 1 1 1 1 1 1 1 1 1 1 1 1 1 1 1 1 1 1 1 1 1 1 1 1 1 1 1 1 1 1 1 1 1 1 1 1 1 1 1 1 1 1 1 1 1 1 1 1 1 1 1 1 1 1 1 1 1 1 1 1 1 1 1 1 1 1 1 1 1 1 1 1 1 1 1 1 1 1 1 1 1 1 1 1 1 1 1 1 1 1 1 1 1 1 1 1 1 1 1 1 1 1 1 1 1 1 1 1 1 1 1 1 1 1 1 1 1 1 1 1 1 1 1 1 1 1 1 1 1 1 1 1 1 1 1 1 1 1 1 1 1 1 1 1 1 1 1 1 1 1 1 1 1 1 1 1 1 1 1 1 1 1 1 1 1 1 1 1 1 1 1 1 1 1 1 1 1 1 1 1 1 1 1 1 1 1 1 1 1 1 1 1 1 1 1 1 1 1 1 1 1 1 1 1 1 1 1 1 1 1 1 1 1 1 1 1 1 1 1 1 1 1 1 1 1 1 1 1 1 1 1 1 1 1 1 1 1 1 1 1 1 1 1 1 1 1 1 1 1 1 1 1 1 1 1 1 1 1 1 1 1 1 1 1 1 1 1 1 1 1 1 1 1 1 1 1 1 1 1 1 1 1 1 1 1 1 1 1 1 1 1 1 1 1 1 1 1 1 1 1 1 1 1 1 1 1 1 1 1 1 1 1 1 1 1 1 1 1 1 1 1 1 1 1 1 1 1 1 1 1 1 1 1 1 1 1 1 1 1 1 1 1 1 1 1 1 1 1 1 1 1 1 1 1 1 1 1 1 1 1 1 1 1 1 1 1 1 1 1 1 1 1 1 1 1 1 1 1 1 1 1 1 1 1 1 1 1 1 1 1 1 1 1 1 1 1 1 1 1 1 1 1 1 1 1 1 1 1 1 1 1 1 1 1 1 1 1 1 1 1 1 1 1 1 1 1 1 1 1 1 1 1 1 1 1 1 1 1 1 1 1 1 1 1 1 1 1 1 1 1 1 1 1 1 1 1 1 1 1 1 1 1 1 1 1 1 1 1 1 1 1 1 1 1 1 1 1 1 1 1 1 1 1 1 1 1 1 1 1 1 1 1 1 1 1 1 1 1 1 1 1 1 1 1 1 1 1 1 1 1 1 1 1 1 1 1 1 1 1 1 1 1 1 1 1 1 1 1 1 1 1 1 1 1 1 1 1 1 1 1 1 1 1 1 1 1 1 1 1 1 1 5 5 5 5 5 5 5 5 5 5 5 5 5 5 5 5 5 5 5 5 5 5 5 5 5 5 5 5 5 5 5 5 5 5 5 5 5 5 5 5 5 5 5 5 5 5 5 5 5 5 5 5 5 5 5 5 5 5 5 5 5 5 5 5 5 5 5 5 5 5 5 5 5 5 5 5 5 5 5 5 5 5 5 5 5 5 5 5 5 5 5 5 5 5 5 5 5 5 5 5 5 5 5 5 5 5 5 5 5 5 5 5 5 5 5 5 5 5 5 5 5 5 5 5 5 5 4 4 4 4 4 4 4 4 4 4 4 4 4 4 4 4 4 4 4 4 4 4 4 4 4 4 4 4 4 4 4 2 2 2 2 2 2 2 2 3 3 3 3 3 3 3 3 4 4 4 4 4 4 4 4 4 4 4 4 4 4 4 4 4 4 4 4 4 4 4 4 4 4 4 4 4 4 4 
</DataArray>
<DataArray type="Float64" Name="u" NumberOfComponents="1" format="ascii">
9.0939933982751664e-01 2.5606010371716648e-01 2.6391024080355663e-01 4.2491970179524441e-01 1.9008853503650686e-01 4.3950687896975393e-01 1.5159749581586883e+00 2.6231706389126092e-01 5.7330386072668202e-02 1.8961321142067660e+00 5.8230423974620726e-01 1.1799740391840405e+00 5.7816111647705032e-02 2.5927593960957807e-01 9.1411526012450423e-02 1.1833961307922916e-01 1.6070310457429265e-01 2.4943470078213020e-01 4.6378677428225190e-01 1.1789169133893211e+00 1.7419806835159619e+00 5.9925067388036057e-01 4.4781848304409022e-01 5.0929722490389373e-01 7.3433252297856533e-01 1.7056838784242173e-01 4.1221246238762332e-02 4.6847978456407979e-01 8.6738211288462208e-02 2.8297992561585883e-02 1.5330779070742697e+00 5.7846071766906537e-01 8.0031714931665587e-01 3.1625365711552084e-02 1.8692790643980545e-01 1.9020196702338481e+00 1.3188284910905435e-01 5.0063161588129623e-01 1.4227554266830582e+00 6.6498058577833319e-01 1.6945516795087108e+00 7.7005125158856558e-01 6.5617289708805560e-01 4.0564730432466234e-01 5.9990854006690553e-01 5.4115523445585589e-01 1.0886057076972233e+00 5.6711249194389779e-01 9.1851864228471192e-02 1.6072838783539328e-01 5.6749397786984590e-01 5.6947483124307460e-02 4.6985724802614459e-01 6.1268947394370321e-01 2.4122919373312740e-01 1.2495592323412030e-01 1.7828044150129900e+00 1.0201736292446366e+00 1.6407606213577541e+00 3.7886444022235899e-01 5.8277213504885705e-01 6.1781139123292850e-01 7.1310648679525401e-01 1.6084768998303506e-01 3.5587595215720991e-01 5.0255627089532562e-01 8.2604480069281927e-01 4.2842633383709372e-01 4.8958905836143324e-01 6.1766662449048337e-01 4.7288285567840382e-01 3.2384498325941202e-01 6.3283231646885185e-01 1.2672753828406669e-01 8.8656734964730033e-01 6.0709123393321163e-01 5.4938975014503155e-01 4.9262694698471876e-01 8.4690833531584520e-02 1.4330020429807990e+00 3.8678483833406596e-01 4.8327441153536138e-01 1.0031933557283637e+00 9.4408423601883773e-01 7.4616825315280066e-01 2.2929099128814390e-01 7.5216655482084827e-01 8.6922632874010841e-01 5.3592091279966492e-01 1.2327638033571026e-01 3.3851525376850050e-01 9.3992664153309646e-01 1.7617933227711093e+00 5.6620576833549174e-01 5.6032285047925212e-01 6.2333321770474248e-01 2.9757946817249481e-01 2.2383360728906732e-01 1.0295277150099651e+00 2.6703864957875589e-01 1.3554872108846596e+00 2.9062311686167103e-01 5.9636768686143871e-01 2.5728521426274864e-01 1.9164251029569604e-01 1.9382262783621390e-01 3.6274359047334714e-01 3.8161840994922491e-01 4.9322007236481419e-01 1.8389129179558894e-01 2.2438171350233249e-01 2.3890740392256632e-01 1.0252699556367797e+00 3.9977773751239543e-01 4.1580414243572311e-01 8.4439123622664636e-01 6.9448386618577951e-01 5.6916020248602894e-01 3.8840800358688377e-01 4.0484936797252147e-01 6.7204511684896739e-01 9.2517477263840808e-01 1.8885979632588290e+00 8.6034797211818448e-01 4.8956691472164510e-01 6.8471864564903151e-01 1.8286490505680994e-01 7.9476822638106026e-01 1.8680331391358204e-01 6.2475253385230456e-01 2.5824741524258038e-01 4.4848100701394789e-01 1.4677612169711940e-01 2.3729110314874358e-01 9.7457539564937856e-01 6.5624626809051234e-01 1.6137498374286030e-01 7.0402739509903745e-01 2.1253437850655486e+00 1.5743265979686916e+00 2.0746777646450232e-01 5.4572510337543578e-01 9.0985591293531703e-02 8.5939346105701409e-01 4.0207426787278178e-01 5.6414787420635069e-02 1.0091699357468433e+00 2.4245081109813024e-01 1.7320981181873632e-01 5.2688677985462551e-01 1.0055231596610663e+00 6.5335631701614660e-01 1.0650877621316736e-01 3.1979055856002678e-02 6.0924258334352621e-01 6.4707097967481886e-01 2.0634841977358263e+00 1.9851548929980306e-01 2.2925624029316416e-01 4.3889151660313946e-01 1.8274100014810246e+00 6.0628302727919303e-01 4.4648540918707808e-01 1.0340598305377831e+00 9.7824466547491684e-01 8.6093785286208058e-01 3.5884077444686691e-01 1.0107316319268733e+00 1.0369609945773237e+00 5.0854656174488411e-01 9.3461591008725786e-01 1.9255463781959170e-01 1.5873544464113674e+00 8.6307247933797626e-01 5.6591377973792278e-01 1.1472266458072378e+00 5.8218069145098239e-01 6.7330108150322210e-01 1.0003451034327444e+00 3.2080149372486511e-01 1.0006603306751949e+00 2.3023326560987734e-01 6.3010568941656864e-01 1.2159616219915653e-01 3.6406110300745365e-01 6.5479042300072843e-01 1.9825587274369108e+00 1.1518994972933911e+00 5.8417735123201953e-01 2.2805386877363931e+00 5.2887484908456051e-01 1.4211067207176986e-01 2.2334068565530916e+00 6.8083781388875986e-01 8.2096422377229605e-01 7.3795100413866566e-01 6.6222184729662104e-01 1.3768483544896772e+00 1.6843543067087485e-01 4.2759173369502179e-01 7.4926552618674569e-01 4.5333944247927760e-01 6.1490714825809356e-01 1.0032338142223096e+00 2.3192623651240823e-01 1.1743156348884534e+00 5.4555384928522588e-01 1.0038358937722627e+00 1.0049815246605003e+00 6.2968557725522556e-01 1.1573487486295173e-01 3.1337534719046756e-01 2.5549239010857203e+00 6.5377700224205515e-01 4.5015614273562210e-01 2.2869456791226545e-01 7.8632649975884228e-01 2.0850147252300263e-01 1.9805302886722298e+00 9.5092312323834111e-02 4.6795312700378677e-01 6.0393679078002149e-01 6.6327529934831975e-01 6.0966855371284512e-01 1.9183290024020277e-01 6.1116185675660883e-01 2.8062622905550477e-01 9.1300120442168220e-01 5.9742983384474879e-01 2.6392858209358439e-01 4.3576460920675653e-01 5.8890450234293479e-01 3.1820004585093348e-01 1.0038091917368113e+00 2.4112286106588856e+00 1.0701782428733506e+00 4.4492595155762060e-01 8.4912145204565892e-01 1.3299851413882502e+00 2.5926783093637834e-01 1.9142843819256088e+00 1.7809864579568607e-01 9.4230777910018632e-02 1.0103946211073493e+00 3.8955654732741479e-01 6.1681067675048262e-01 6.3940866080389203e-01 1.4464065026374371e+00 5.8618823472082626e-01 6.8477308054878661e-01 6.1415815980116240e-01 1.0137514242247039e+00 4.1632117522254170e-01 5.9688722437129516e-01 4.4292771617272014e-01 1.1232630451268464e+00 1.7634944026052226e+00 3.0853594820988577e-02 1.1715394348613419e+00 6.1797806355711082e-01 2.5299683215780155e-01 1.4555974257114007e-01 8.9806560068993968e-01 6.7029608897740434e-01 6.6252828482319726e-01 1.0620219696631179e+00 1.0232150607570825e+00 4.3371031948621541e-01 2.7876039088782234e-01 1.5061236488714906e+00 8.3491646386887719e-01 4.4358548027935962e-01 5.9505737509779033e-01 5.8255009829520343e-01 4.5613881686206492e-01 5.7493943660827988e-02 1.2350724188244057e-01 9.6778334963176837e-02 7.2782143541672326e-02 9.8147325504705141e-01 1.0014579134182700e+00 1.7221559874057984e-01 1.3233861581089329e-01 6.1599065208155035e-01 2.8453778520448525e-01 9.8571982437744921e-01 5.8504819813405518e-01 8.9079489516192623e-01 2.7803573112916047e-01 3.5042239128642672e-01 1.0016801541031555e+00 1.3468361192376759e+00 1.8210084145245036e+00 8.2619683007755063e-01 1.1398973466700439e+00 3.6288002747038117e-01 3.1796328679523228e-01 6.2007356061329422e-01 4.3589281252599081e-02 4.8101409743291657e-01 3.7708561490778414e-01 4.0629554266254780e-01 5.8639921267815498e-01 6.9960564572623585e-01 2.3283187250540890e-01 6.0624847899248668e-01 1.1199218134729940e+00 4.9728210499967521e-02 5.3839653265802168e-01 6.1596231892048725e-01 2.9886949564147158e-01 9.3014304637770784e-01 6.3206360330115863e-01 8.5334898136748605e-02 5.8606362519497601e-01 2.7258694867175226e-01 8.0016250609500614e-02 5.4238564990057703e-01 1.5417288985111385e-01 3.5966189536241699e-01 1.2404537705717733e+00 3.6358314171913642e-01 2.9297777654710055e-01 1.7006682128532753e+00 4.8040435902464450e-02 6.6884235594735553e-01 5.9549375542317096e-01 1.8562533437206524e-01 1.8333444716221231e-01 1.0003929151953947e+00 3.9939443702713950e-01 5.1638819221134413e-01 1.0162803959807789e+00 3.9238912398821335e-01 1.3294264082911058e+00 3.5032007345711957e-01 5.8298199266238726e-01 3.9863618307376369e-01 3.0064689047197979e-01 1.0138080456726888e+00 1.1664155464054571e+00 6.5711917996169777e-01 4.2579827779199397e-01 5.1283764850618585e-01 4.1630405274973503e-01 9.7236602564357089e-01 6.9030096766611260e-01 2.6847934765199102e-02 7.1646866525743103e-01 5.8425370118401021e-01 1.4148638030587071e+00 5.2548900612376426e-01 1.0922998598738218e+00 1.0125278275178491e+00 1.3644578528309550e+00 8.0204084907474615e-01 3.6427147444119068e-01 8.8816629398810232e-01 2.1776939253805166e-01 1.6409371965374231e-01 1.2107613404124851e+00 1.2109465123873903e-01 1.0142438894333772e+00 2.3479336453537725e+00 1.1407277211716758e+00 9.4185444465788271e-01 3.3036114800835875e-01 6.3122468797816256e-01 9.0258201879697431e-01 2.2583223895488164e-01 6.2061543584322232e-01 2.5386251161518630e-01 6.1171599323700021e-01 8.5654738955141996e-01 3.5013619491105474e-01 1.5200779754965474e+00 9.2271861745884032e-02 8.4462699947407183e-01 8.7349344841537868e-01 5.7463216736088163e-01 3.1452159898423254e-01 1.5653069559829076e+00 1.3523475426603410e-01 7.0447003898796962e-02 1.2807082195459376e+00 6.0945018233300241e-01 3.0927631174700587e-01 8.9891728697964218e-02 5.9200556544211158e-01 1.4023037446088442e+00 1.6104913677189470e+00 9.9992275109919360e-01 4.9409801164965889e-01 9.5913891816556573e-01 8.7905269952435383e-01 4.3853752357641204e-02 5.6280631889853661e-01 3.5921589759998063e-01 1.3355225077232331e+00 6.0592789779039513e-01 7.8253349342112782e-02 5.1198759540817973e-01 4.1903772868841316e-01 8.1726713162855846e-01 7.4521406744311935e-01 1.6906489120381294e+00 1.5231450009879960e-01 6.3072975332751935e-01 2.1581868810064266e+00 6.9834869228533480e-01 6.1536229720891433e-01 1.0388621924574095e+00 1.4810671971761136e+00 3.2899713882334325e-01 4.1354557216981463e-01 6.2887758789274173e-01 2.7043467336504129e-01 9.5276693093682058e-02 4.3816001731113197e-01 9.1490664204831734e-02 2.2489899403772451e-01 3.7301584407779326e-01 4.0422796600641719e-01 5.8005253065175866e-01 2.3588600283015276e-01 1.1085521643882426e+00 4.6917071332051541e-01 3.0425386522053577e-01 5.4088760345248099e-01 2.0059649734412155e-01 6.1697358379873379e-01 6.2591400105359973e-01 4.4405044093191287e-01 2.0817228218883028e+00 2.7164788062903789e-01 1.7751992400022378e+00 1.9246912916053862e+00 1.5211859071611553e+00 3.1174141056300209e-01 6.0260404884135399e-01 1.1651699928563568e+00 4.7405921905900245e-01 3.1530338693536847e-01 7.8017060382185172e-02 9.0987028428859529e-01 3.1971510235338965e-02 5.9294206900103252e-01 6.5021494050639750e-01 8.7919267240283094e-01 2.1476143849406393e-01 2.6179784600671019e-01 6.9031888546634534e-01 6.4792190335071320e-01 9.2462434389617515e-02 5.1292574184033946e-01 1.0000038269275882e+00 2.3418972690390444e-01 3.5483108323863026e-02 2.7673581619386245e-01 1.5443111999625563e+00 6.9825724839703507e-01 4.4228689415408984e-01 6.3288530352357242e-01 6.8593660257298583e-01 1.0002704513988452e+00 2.1797723785531642e-01 4.1848252721841500e-01 5.4242889668467476e-01 4.6525446003972593e-01 2.4388242216368344e-01 3.7661421260444078e-01 6.1544961562724487e-01 6.1588200830009088e-01 8.5901605061422459e-01 3.6931183459553096e-01 2.5550376950719960e+00 1.2299363260900433e+00 6.1326241129513881e-01 3.3259130600991960e-01 6.1781164923457199e-01 6.0687192086943109e-01 6.2525319274859559e-01 1.1595926638787839e+00 8.9912264977053202e-01 3.1277464951311995e-01 7.1485072404663952e-01 1.3078033937811889e-01 7.1355711072884542e-01 7.3056926444363346e-02 6.0653291539571907e-01 3.8744740349355433e-01 1.0197885383073932e-01 5.3107179685204375e-01 2.3421788005740168e-01 6.0801906654646465e-01 4.2279363981626406e-01 7.6704258897410482e-01 2.2081906961970144e-01 3.2955185511783391e-01 3.3843009344417219e-01 3.7466615729789943e-01 3.8792444735012321e-01 1.7157424130521939e+00 6.2301752122611509e-01 1.0261871809647283e+00 5.1518228903952586e-02 1.0620293486688808e+00 1.7697908538303428e-01 9.7349043567568116e-01 1.0245424035608476e-01 5.1082413640160751e-01 5.8909215743214061e-01 4.5165946642262811e-01 4.4083230959796105e-02 5.3478822184400709e-01 4.8055943736591133e-01 7.7437916097493686e-01 8.7878116891678593e-01 3.3479124937117516e-01 4.6287335755199011e-01 1.1660386331028176e+00 4.1908180070676893e-01 3.5484910257625535e-01 6.7140868772704487e-01 3.9193702189155305e-01 2.7275226416268250e-01 8.3662511621942182e-01 7.9818745517977574e-01 1.1464074127935242e-01 6.1652596617196787e-01 7.3586818846908730e-01 2.9071609394203812e-01 1.1295076983150909e-01 5.9186573718302282e-01 4.4198109438598990e-02 6.2183203092247852e-01 6.1672928664222959e-01 6.1928794093347328e-01 6.2014383071696377e-01 2.9353716184642442e-01 1.0379368372275444e+00 2.8079799589401178e-01 1.3737987270653105e+00 3.3828790979096585e-01 2.7150521997187771e-01 6.0954123100146496e-01 6.1638118265509334e-01 9.0506031095528594e-01 7.5145712493911088e-01 6.5336130426919081e-01 3.0554384249309069e-01 7.1286682839932197e-02 1.0068118715139329e+00 2.8854593401677270e-01 2.1306930491221315e-01 8.1134586298828149e-01 6.5680956210449715e-01 4.2998819150375400e-01 9.5929157536322207e-01 1.7937138422620471e+00 4.0400502284127848e-01 1.0506351607639361e-01 6.3061171120423087e-01 4.1232976202594579e-01 3.7356077758024064e-01 9.5880847806109046e-02 2.8751308669077980e-02 6.1608907031885196e-01 6.1701794721158476e-01 3.7010741448495232e-01 9.0549469694652274e-01 5.9248348691247132e-01 5.1985769971900075e-01 1.6287427700869537e+00 6.1875270455895737e-01 6.0630318225325897e-01 3.7009822365923750e-01 6.2014775132464972e-01 7.4783148431828472e-01 3.4111328195539647e-01 9.5047339226499472e-01 1.0526914594866328e+00 4.2250422053441800e-01 2.0248891851862600e+00 6.0888143541743922e-01 3.8381756713429485e-02 4.5409303418654101e-01 9.9989403156371215e-01 3.4297868450878821e-01 4.8218530275394633e-01 4.6284911080247970e-01 8.4323743807999207e-01 7.6250929209334362e-01 7.1356730227081155e-01 6.6312012835160294e-01 1.7861383136015738e-01 3.8755959765620229e-01 1.0405700810389225e+00 1.0470080801119703e+00 6.2132079067795587e-01 2.2436352091007921e+00 6.1793339894102961e-01 1.6634817813450371e+00 4.9532390727790598e-01 4.3813408554006639e-01 4.2319736841477551e-01 1.1763033217328003e+00 5.9626659929197773e-02 1.1117703692735144e+00 6.3987497549601022e-02 6.7659592495265508e-01 5.0245578298163174e-01 1.4130687885045521e+00 7.2100765393041599e-01 6.0738003453468614e-01 5.5375682458900777e-01 6.4650345060458880e-01 6.0543224657874650e-01 5.9250408951687583e-01 1.1696699732543593e-01 5.7440978859829794e-01 2.4344834297982512e-01 9.1749196021538948e-01 5.9747846248193492e-01 6.2456431410901725e-01 6.0371823673660818e-01 8.4962811022280060e-01 1.2811471431120514e+00 6.3695464869464291e-01 5.2869785370510591e-01 6.1630344723013009e-01 1.2268277759567154e+00 9.1512523798418610e-01 9.1872711918310734e-01 5.5433965326696422e-01 1.1449117403529483e+00 4.7064136002836221e-01 9.3144336826429808e-01 4.6610480501229934e-01 6.1824271853268120e-01 1.0001697167260513e+00 5.9599256327820305e-01 2.9488245835216320e-01 6.2683504773224641e-01 1.3675344559468314e+00 3.9858847883664594e-01 1.3957735467825011e-01 4.9452195161899561e-02 6.0615680233376867e-01 4.7083241996046099e-01 2.5608378187465053e-01 1.0000822392935249e+00 7.5833614108578945e-02 2.8253253960643082e-01 9.7885222249463583e-02 1.1585638273941590e+00 1.0001165197300417e+00 9.0899524102033036e-01 5.5850885569212982e-01 1.1357071409176795e