<?xml version="1.0"?>
<VTKFile type="UnstructuredGrid"  byte_order="LittleEndian">
<UnstructuredGrid>
<Piece NumberOfPoints="776" NumberOfCells=" 1552">
<Points>
<DataArray type="Float32" NumberOfComponents="3" format="ascii">
36.480354 5.448069 0.000000 35.475227 5.448069 0.000000 36.480354 4.444874 0.000000 36.480354 -3.574759 0.000000 36.480354 0.435481 0.000000 36.480354 -0.566868 0.000000 36.480354 3.442526 0.000000 36.480354 -1.569216 0.000000 36.480354 -2.571564 0.000000 35.139622 4.779555 0.000000 34.469254 5.448069 0.000000 35.809986 4.111040 0.000000 35.475227 -3.574759 0.000000 36.480354 1.437829 0.000000 35.809845 0.936655 0.000000 35.809845 -0.232893 0.000000 35.726086 -1.318841 0.000000 35.726086 3.192150 0.000000 36.480354 2.440178 0.000000 35.474804 -2.070813 0.000000 34.972031 -2.822786 0.000000 34.217548 4.696096 0.000000 34.670109 3.843973 0.000000 33.463280 5.448069 0.000000 34.469254 -3.574759 0.000000 35.809845 2.106202 0.000000 35.027588 1.006270 0.000000 34.971710 0.184811 0.000000 35.139339 -0.901266 0.000000 34.670109 -1.970663 0.000000 35.139339 2.774576 0.000000 34.066696 -2.772711 0.000000 34.021824 3.387263 0.000000 33.798321 4.111322 0.000000 33.127815 4.779696 0.000000 32.457306 5.448069 0.000000 33.463280 -3.574759 0.000000 34.692333 1.883443 0.000000 34.245327 1.075886 0.000000 33.798321 0.268328 0.000000 34.468830 -0.316469 0.000000 34.133575 -1.110184 0.000000 33.798321 -1.903896 0.000000 34.245327 2.663204 0.000000 33.127815 -2.739328 0.000000 33.351318 3.053100 0.000000 32.457306 4.445532 0.000000 32.457306 3.442996 0.000000 31.451332 5.448069 0.000000 32.457306 -3.574759 0.000000 33.351318 1.883474 0.000000 33.127815 0.853126 0.000000 32.792561 0.142988 0.000000 33.351318 -0.678522 0.000000 33.016041 -1.736791 0.000000 32.345531 -2.572222 0.000000 32.457306 2.440460 0.000000 31.339558 4.445532 0.000000 31.674881 3.442996 0.000000 30.445358 5.448069 0.000000 31.451332 -3.574759 0.000000 32.457306 1.437923 0.000000 32.010208 0.435387 0.000000 32.457306 -0.567150 0.000000 32.233757 -1.569686 0.000000 31.451332 -2.572222 0.000000 31.451332 2.440460 0.000000 31.451332 -1.569686 0.000000 30.445358 3.442996 0.000000 30.445358 4.445532 0.000000 29.439383 4.445532 0.000000 29.439383 5.448069 0.000000 30.445358 -3.574759 0.000000 31.451332 1.437923 0.000000 31.227781 0.435387 0.000000 31.451332 -0.567150 0.000000 30.445358 -2.572222 0.000000 30.445358 2.440460 0.000000 30.221807 -1.569686 0.000000 30.836569 -1.068418 0.000000 29.607046 2.440460 0.000000 29.439383 3.442996 0.000000 28.433409 5.448069 0.000000 28.321634 4.445532 0.000000 29.439383 -3.574759 0.000000 29.439383 -2.572222 0.000000 30.445358 1.437923 0.000000 30.445358 0.435387 0.000000 30.110033 -0.567150 0.000000 29.439383 -1.569686 0.000000 29.439383 1.437923 0.000000 28.768734 2.440460 0.000000 28.209860 3.442996 0.000000 27.427435 5.448069 0.000000 27.427435 4.445532 0.000000 28.433409 -2.572222 0.000000 28.433409 -3.574759 0.000000 29.439383 0.435387 0.000000 29.104059 -0.567150 0.000000 28.433409 -1.569686 0.000000 27.427435 3.442996 0.000000 27.986309 1.437923 0.000000 28.433409 0.435387 0.000000 27.427435 2.440460 0.000000 26.421461 4.445532 0.000000 26.421461 5.448069 0.000000 26.645010 3.442996 0.000000 27.539209 -2.572222 0.000000 27.650984 -1.569686 0.000000 27.427435 -3.574759 0.000000 28.265747 -0.567150 0.000000 26.421461 -3.574759 0.000000 26.868561 1.437923 0.000000 27.427435 0.435387 0.000000 26.086136 2.440460 0.000000 25.415485 4.445532 0.000000 25.415485 3.442996 0.000000 25.415485 5.448069 0.000000 26.421461 -2.572222 0.000000 26.421461 -1.569686 0.000000 27.427435 -0.567150 0.000000 25.415485 -3.574759 0.000000 25.415485 -2.572222 0.000000 25.974361 1.437923 0.000000 26.421461 0.435387 0.000000 26.421461 -0.567150 0.000000 24.744837 2.440460 0.000000 24.409512 5.448069 0.000000 24.409512 4.445532 0.000000 24.409512 3.442996 0.000000 25.415485 -1.569686 0.000000 24.409512 -3.574759 0.000000 24.297737 -2.572222 0.000000 25.415485 0.435387 0.000000 24.856611 1.437923 0.000000 25.080162 -0.567150 0.000000 23.403538 2.440460 0.000000 23.850637 1.437923 0.000000 23.515312 4.445532 0.000000 23.403538 5.448069 0.000000 23.403538 3.442996 0.000000 24.185963 -1.569686 0.000000 23.403538 -3.574759 0.000000 23.403538 -2.572222 0.000000 23.962412 0.435387 0.000000 24.074186 -0.567150 0.000000 22.956438 1.437923 0.000000 22.397564 3.442996 0.000000 22.397564 2.440460 0.000000 22.397564 4.445532 0.000000 22.397564 5.448069 0.000000 23.403538 -1.569686 0.000000 22.397564 -2.572222 0.000000 22.397564 -3.574759 0.000000 22.844664 0.435387 0.000000 22.732887 -0.567150 0.000000 21.950464 0.435387 0.000000 21.838688 1.437923 0.000000 21.615139 3.442996 0.000000 21.391588 2.440460 0.000000 21.503365 4.445532 0.000000 21.391588 5.448069 0.000000 22.174013 -1.569686 0.000000 21.391588 -3.574759 0.000000 21.391588 -2.572222 0.000000 21.391588 -1.569686 0.000000 20.385614 5.448069 0.000000 21.391588 -0.567150 0.000000 20.944489 1.437923 0.000000 20.832714 0.435387 0.000000 20.385614 3.442996 0.000000 20.385614 2.440460 0.000000 20.385614 4.445532 0.000000 20.497389 -2.572222 0.000000 20.385614 -3.574759 0.000000 20.609165 -1.569686 0.000000 19.379641 4.445532 0.000000 19.379641 5.448069 0.000000 20.050289 -0.567150 0.000000 19.826740 1.437923 0.000000 19.938515 0.435387 0.000000 19.379641 3.442996 0.000000 19.379641 2.440460 0.000000 19.379641 -2.572222 0.000000 19.379641 -1.569686 0.000000 19.379641 -3.574759 0.000000 18.373667 4.445532 0.000000 18.373667 5.448069 0.000000 18.932541 0.435387 0.000000 19.044315 -0.567150 0.000000 18.373667 1.437923 0.000000 18.373667 3.442996 0.000000 18.038342 2.440460 0.000000 18.373667 -1.569686 0.000000 18.373667 -2.572222 0.000000 18.373667 -3.574759 0.000000 17.367691 5.448069 0.000000 17.367691 4.445532 0.000000 18.317778 -0.065881 0.000000 17.367691 -3.574759 0.000000 17.703016 -0.567150 0.000000 17.423578 1.939191 0.000000 17.367691 0.435387 0.000000 17.367691 3.442996 0.000000 17.591242 -1.569686 0.000000 17.479467 -2.572222 0.000000 16.361717 5.448069 0.000000 16.361717 3.442996 0.000000 16.249943 4.445532 0.000000 16.361717 -2.572222 0.000000 16.361717 -3.574759 0.000000 16.976479 -1.068418 0.000000 16.361717 -0.567150 0.000000 16.361717 2.440460 0.000000 16.808817 1.437923 0.000000 16.361717 0.435387 0.000000 16.361717 -1.569686 0.000000 15.355743 5.448069 0.000000 15.355743 3.442996 0.000000 15.355743 2.440460 0.000000 15.355743 4.445532 0.000000 15.355743 -2.572222 0.000000 15.355743 -3.574759 0.000000 15.746955 -1.068418 0.000000 15.355743 0.435387 0.000000 15.020418 -0.567150 0.000000 15.355743 1.437923 0.000000 15.132194 -1.569686 0.000000 14.461544 4.445532 0.000000 14.349769 5.448069 0.000000 14.517431 2.440460 0.000000 14.349769 3.442996 0.000000 14.349769 -2.572222 0.000000 14.349769 -3.574759 0.000000 14.349769 0.435387 0.000000 14.014444 -0.567150 0.000000 14.349769 -1.569686 0.000000 14.349769 1.437923 0.000000 13.343795 4.445532 0.000000 13.343795 5.448069 0.000000 13.679119 2.440460 0.000000 13.120245 3.442996 0.000000 13.343795 -2.572222 0.000000 13.343795 -3.574759 0.000000 12.337820 3.442996 0.000000 13.343795 1.437923 0.000000 12.337820 4.445532 0.000000 13.343795 0.435387 0.000000 13.343795 -1.569686 0.000000 13.008470 -0.567150 0.000000 12.337820 5.448069 0.000000 12.337820 2.440460 0.000000 12.337820 -2.572222 0.000000 12.337820 -3.574759 0.000000 11.555396 3.442996 0.000000 12.337820 1.437923 0.000000 11.443621 4.445532 0.000000 9.529771 3.181112 0.000000 8.648035 2.818622 0.000000 10.636835 3.761877 0.000000 11.890720 0.435387 0.000000 12.114270 -1.569686 0.000000 12.002496 -0.567150 0.000000 11.331846 5.448069 0.000000 11.331846 2.440460 0.000000 11.515150 -2.709337 0.000000 11.331846 -3.574759 0.000000 10.419880 2.719140 0.000000 11.331846 1.437923 0.000000 10.512137 4.628139 0.000000 9.762982 3.749734 0.000000 10.087371 3.240807 0.000000 9.169739 3.754359 0.000000 9.418025 2.718772 0.000000 9.069391 3.131824 0.000000 8.575209 3.282838 0.000000 8.920908 2.545499 0.000000 8.505291 2.400633 0.000000 8.201900 2.649631 0.000000 8.246918 3.024979 0.000000 6.785814 2.449039 0.000000 6.837716 2.361737 0.000000 6.946459 2.359632 0.000000 7.731091 2.619817 0.000000 7.968171 2.806034 0.000000 10.990333 0.089464 0.000000 11.331846 -1.569686 0.000000 10.966363 -0.798404 0.000000 10.325871 5.448069 0.000000 10.587801 1.935885 0.000000 10.742488 -2.838116 0.000000 10.325871 -3.574759 0.000000 9.954687 2.359604 0.000000 10.474807 0.878621 0.000000 9.664626 4.794283 0.000000 9.115639 4.289966 0.000000 8.662765 3.758311 0.000000 9.363315 2.217875 0.000000 8.288996 3.498930 0.000000 8.869577 2.099545 0.000000 8.457735 2.000842 0.000000 8.157495 2.279407 0.000000 7.903135 2.485960 0.000000 7.980385 3.203612 0.000000 6.835631 2.546809 0.000000 6.885841 2.462353 0.000000 6.721193 2.527396 0.000000 6.875683 2.267534 0.000000 7.057134 2.383075 0.000000 6.968931 2.263601 0.000000 7.725507 2.959713 0.000000 7.683676 2.371131 0.000000 7.514527 2.757821 0.000000 7.530218 2.462039 0.000000 7.196785 2.453766 0.000000 7.347367 2.503167 0.000000 9.987780 0.217143 0.000000 10.461230 -0.462494 0.000000 10.470366 -1.615280 0.000000 9.319898 5.448069 0.000000 9.629779 1.723858 0.000000 10.028171 1.325368 0.000000 9.800462 -2.794009 0.000000 10.217072 -2.213370 0.000000 9.319898 -3.574759 0.000000 9.852787 0.738335 0.000000 8.763089 4.723522 0.000000 8.329440 4.106459 0.000000 9.092154 1.643000 0.000000 7.946834 3.740808 0.000000 8.466605 1.587836 0.000000 8.114211 1.918512 0.000000 7.943844 2.086781 0.000000 7.662471 3.387233 0.000000 6.780587 2.636309 0.000000 6.947951 2.592206 0.000000 6.645369 2.594971 0.000000 6.898825 2.168640 0.000000 7.147362 2.621056 0.000000 7.196785 2.268839 0.000000 7.091821 2.117695 0.000000 6.987466 2.147326 0.000000 7.465283 3.034752 0.000000 7.489991 2.237135 0.000000 7.691461 2.088608 0.000000 7.307351 2.722003 0.000000 7.359672 2.328081 0.000000 9.5678
[...]
<CellData Scalars="Label">
<DataArray type="Int32" Name="Label" format="ascii">
0 0 0 0 0 0 0 0 0 0 0 0 0 0 0 0 0 0 0 0 0 0 0 0 0 0 0 0 0 0 0 0 0 0 0 0 0 0 0 0 0 0 0 0 0 0 0 0 0 0 0 0 0 0 0 0 0 0 0 0 0 0 0 0 0 0 0 0 0 0 0 0 0 0 0 0 0 0 0 0 0 0 0 0 0 0 0 0 0 0 0 0 0 0 0 0 0 0 0 0 0 0 0 0 0 0 0 0 0 0 0 0 0 0 0 0 0 0 0 0 0 0 0 0 0 0 0 0 0 0 0 0 0 0 0 0 0 0 0 0 0 0 0 0 0 0 0 0 0 0 0 0 0 0 0 0 0 0 0 0 0 0 0 0 0 0 0 0 0 0 0 0 0 0 0 0 0 0 0 0 0 0 0 0 0 0 0 0 0 0 0 0 0 0 0 0 0 0 0 0 0 0 0 0 0 0 0 0 0 0 0 0 0 0 0 0 0 0 0 0 0 0 0 0 0 0 0 0 0 0 0 0 0 0 0 0 0 0 0 0 0 0 0 0 0 0 0 0 0 0 0 0 0 0 0 0 0 0 0 0 0 0 0 0 0 0 0 0 0 0 0 0 0 0 0 0 0 0 0 0 0 0 0 0 0 0 0 0 0 0 0 0 0 0 0 0 0 0 0 0 0 0 0 0 0 0 0 0 0 0 0 0 0 0 0 0 0 0 0 0 0 0 0 0 0 0 0 0 0 0 0 0 0 0 0 0 0 0 0 0 0 0 0 0 0 0 0 0 0 0 0 0 0 0 0 0 0 0 0 0 0 0 0 0 0 0 0 0 0 0 0 0 0 0 0 0 0 0 0 0 0 0 0 0 0 0 0 0 0 0 0 0 0 0 0 0 0 0 0 0 0 0 0 0 0 0 0 0 0 0 0 0 0 0 0 0 0 0 0 0 0 0 0 0 0 0 0 0 0 0 0 0 0 0 0 0 0 0 0 0 0 0 0 0 0 0 0 0 0 0 0 0 0 0 0 0 0 0 0 0 0 0 0 0 0 0 0 0 0 0 0 0 0 0 0 0 0 0 0 0 0 0 0 0 0 0 0 0 0 0 0 0 0 0 0 0 0 0 0 0 0 0 0 0 0 0 0 0 0 0 0 0 0 0 0 0 0 0 0 0 0 0 0 0 0 0 0 0 0 0 0 0 0 0 0 0 0 0 0 0 0 0 0 0 0 0 0 0 0 0 0 0 0 0 0 0 0 0 0 0 0 0 0 0 0 0 0 0 0 0 0 0 0 0 0 0 0 0 0 0 0 0 0 0 0 0 0 0 0 0 0 0 0 0 0 0 0 0 0 0 0 0 0 0 0 0 0 0 0 0 0 0 0 0 0 0 0 0 0 0 0 0 0 0 0 0 0 0 0 0 0 0 0 0 0 0 0 0 0 0 0 0 0 0 0 0 0 0 0 0 0 0 0 0 0 0 0 0 0 0 0 0 0 0 0 0 0 0 0 0 0 0 0 0 0 0 0 0 0 0 0 0 0 0 0 0 0 0 0 0 0 0 0 0 0 0 0 0 0 0 0 0 0 0 0 0 0 0 0 0 0 0 0 0 0 0 0 0 0 0 0 0 0 0 0 0 0 0 0 0 0 0 0 0 0 0 0 0 0 0 0 0 0 0 0 0 0 0 0 0 0 0 0 0 0 0 0 0 0 0 0 0 0 0 0 0 0 0 0 0 0 0 0 0 0 0 0 0 0 0 0 0 0 0 0 0 0 0 0 0 0 0 0 0 0 0 0 0 0 0 0 0 0 0 0 0 0 0 0 0 0 0 0 0 0 0 0 0 0 0 0 0 0 0 0 0 0 0 0 0 0 0 0 0 0 0 0 0 0 0 0 0 0 0 0 0 0 0 0 0 0 0 0 0 0 0 0 0 0 0 0 0 0 0 0 0 0 0 0 0 0 0 0 0 0 0 0 0 0 0 0 0 0 0 0 0 0 0 0 0 0 0 0 0 0 0 0 0 0 0 0 0 0 0 0 0 0 0 0 0 0 0 0 0 0 0 0 0 0 0 0 0 0 0 0 0 0 0 0 0 0 0 0 0 0 0 0 0 0 0 0 0 0 0 0 0 0 0 0 0 0 0 0 0 0 0 0 0 0 0 0 0 0 0 0 0 0 0 0 0 0 0 0 0 0 0 0 0 0 0 0 0 0 0 0 0 0 0 0 0 0 0 0 0 0 0 0 0 0 0 0 0 0 0 0 0 0 0 0 0 0 0 0 0 0 0 0 0 0 0 0 0 0 0 0 0 0 0 0 0 0 0 0 0 0 0 0 0 0 0 0 0 0 0 0 0 0 0 0 0 0 0 0 0 0 0 0 0 0 0 0 0 0 0 0 0 0 0 0 0 0 0 0 0 0 0 0 0 0 0 0 0 0 0 0 0 0 0 0 0 0 0 0 0 0 0 0 0 0 0 0 0 0 0 0 0 0 0 0 0 0 0 0 0 0 0 0 0 0 0 0 0 0 0 0 0 0 0 0 0 0 0 0 0 0 0 0 0 0 0 0 0 0 0 0 0 0 0 0 0 0 0 0 0 0 0 0 0 0 0 0 0 0 0 0 0 0 0 0 0 0 0 0 0 0 0 0 0 0 0 0 0 0 0 0 0 0 0 0 0 0 0 0 0 0 0 0 0 0 0 0 0 0 0 0 0 0 0 0 0 0 0 0 0 0 0 0 0 0 0 0 0 0 0 0 0 0 0 0 0 0 0 0 0 0 0 0 0 0 0 0 0 0 0 0 0 0 0 0 0 0 0 0 0 0 0 0 0 0 0 0 0 0 0 0 0 0 0 0 0 0 0 0 0 0 0 0 0 0 0 0 0 0 0 0 0 0 0 0 0 0 0 0 0 0 0 0 0 0 0 0 0 0 0 0 0 0 0 0 0 0 0 0 0 0 0 0 0 0 0 0 0 0 0 0 0 0 0 0 0 0 0 0 0 0 0 0 0 0 0 0 0 0 0 0 0 0 0 0 0 0 0 0 0 0 0 0 0 0 0 0 0 0 0 0 0 0 0 0 0 0 0 0 0 0 0 0 0 0 0 0 0 0 0 0 0 0 0 0 0 0 0 0 0 0 0 0 0 0 0 0 0 0 0 0 0 0 0 0 0 0 0 0 0 0 0 0 0 0 0 0 4 4 4 4 4 4 4 4 4 4 4 4 4 4 4 4 4 4 4 4 4 4 4 4 4 4 4 4 4 4 4 4 4 4 4 4 4 4 4 4 4 3 3 3 3 3 3 3 3 3 3 3 3 3 3 3 3 3 3 3 3 3 3 3 3 3 3 3 3 3 3 3 3 3 3 3 3 3 3 3 3 3 3 3 3 3 3 3 3 3 3 3 3 3 3 3 3 3 3 3 3 3 3 3 3 3 3 3 3 3 3 3 3 2 2 2 2 2 2 2 2 2 1 1 1 1 1 1 1 1 1 
</DataArray>
<DataArray type="Float64" Name="u" NumberOfComponents="1" format="ascii">
4.6072984976360436e-03 8.2120843624757078e-02 6.2869249776580260e-02 6.1635567082228775e-02 6.3142931457529339e-01 8.4950182433086252e-01 7.6341701980374954e-01 8.5943775909785569e-01 8.3182253631028069e-01 6.3624926043996166e-01 7.6834403037838861e-01 7.4878355350676595e-01 8.3173059368020275e-01 8.2298842040454889e-01 8.3726554082863047e-01 8.6886406859039411e-01 8.8786087590044049e-01 8.5505358913792895e-01 8.0828785409900505e-01 7.4155058179955935e-01 7.7937112032503442e-01 7.0980268649581202e-01 8.1072904135129842e-01 8.4873983329049030e-01 9.1314500061064185e-01 9.9265206886400459e-01 1.5573210694249141e-03 1.5502221336784338e-02 1.6964798676090589e-02 6.6182883273088211e-01 5.0366639495020205e-01 8.7601705620759684e-01 5.3983861184009996e-01 7.0615342632572031e-01 2.9702513603681419e-01 2.1258403550466576e-01 9.3312897600424813e-02 3.1978807423657041e-01 7.5167485828232544e-02 1.2153869796347778e-01 2.0030011518511637e-01 2.8081998979734413e-01 3.6564477487582547e-01 1.6285941370051993e-01 2.4921831304725464e-01 2.5345535811928044e-01 1.5687928079832192e-01 2.1001813594315119e-01 1.2742638889662455e-01 5.4885545247073120e-01 2.7928004842060800e-01 4.6171491981488522e-01 1.8544984137316806e-01 4.1894190764090683e-01 3.0201483421196346e-01 7.8058725560150588e-01 8.5940108450273578e-01 8.3033391205401963e-01 1.5573986201380779e-01 1.1059103968308225e-01 2.0593095751326801e-01 8.4178709092042370e-01 4.5689776277036256e-02 1.1255594558752593e+00 1.1036290867670833e+00 1.0572118339000258e+00 1.3472176198008636e+00 1.2133255768571569e+00 1.1780222051570322e+00 9.5671521481544841e-01 1.1483314128056148e+00 1.1640952014449211e+00 1.0706506889963729e+00 1.0549710812761071e+00 1.1700532324524113e+00 1.1935979555489364e+00 9.6001414029166621e-01 9.4978268385022069e-01 9.8388429714393089e-01 1.9461085147592319e-01 1.3671470499678318e-01 1.8331048732224398e-01 1.2508091607474048e-01 9.7642430620859866e-02 4.2634242058737321e-01 3.0730952548661622e-01 3.9379130306053034e-01 2.6553557849784004e-01 3.8917273082210230e-01 1.9210712041832879e-02 9.0471764503822757e-02 2.3963691114636823e-02 3.7912378683120779e-02 1.9607516018999860e-01 1.4263576775366438e-01 1.7451870758405247e-01 2.8908047529906625e-02 6.5726639949339596e-02 3.8722855902193161e-02 6.2612902429961311e-03 1.0400875297660699e-02 1.8885650606395857e-02 9.4415327843553123e-02 6.2525530905276683e-02 2.8009487645209608e-02 3.9669780867075621e-02 1.3905245150304857e-01 1.6248388741656317e-01 6.5010818467977544e-02 2.2137371853388085e-01 8.5511292124323929e-02 5.0293645553196459e-02 1.3637381076942896e+00 1.4401944187926397e+00 1.4422422421412655e+00 1.4754040370898918e+00 1.5862332667165218e+00 1.2837665851051459e+00 1.4242701596581493e+00 1.4057321316757383e+00 1.4871958236175593e+00 1.3537063061783554e+00 1.3210426658892396e+00 1.3096191278904099e+00 1.3261420216865381e+00 6.0992370378350945e-02 3.6837666173071476e-01 1.7867846890015415e-01 3.0192551030498449e-01 3.1167803965231577e-01 1.3959497351762615e+00 1.0586296133695272e-01 2.3493308693751647e-01 2.6554880528611713e-01 1.2477726294284357e-01 1.4952315262747422e+00 1.4329161685748395e+00 1.1263408375246573e+00 1.4692376211918856e-01 3.8296539750198466e-01 7.6587308148283711e-02 1.9861461237649791e-01 7.0924735321534302e-02 1.4891528972329243e-01 6.3441028451549997e-01 3.1124630133993181e-01 2.7555744680689742e-01 6.2517416997360886e-01 5.1433039013529769e-01 6.2973339507542891e-01 9.2647908325226203e-01 9.0568021270861498e-01 9.5248168644142095e-01 8.1190157810281094e-01 3.1455561400169141e-01 6.6387774372663255e-01 4.5638744237138440e-01 3.5216598973839586e-01 4.3124736016355181e-01 7.5867681074367344e-01 6.3686074884033927e-01 4.9739898437749275e-01 8.9969423909031310e-01 7.8394785611284368e-01 1.0478164161423484e+00 1.0428872294090674e+00 9.6528722083783469e-01 9.2333124367170027e-01 9.0813305127955757e-01 8.4428028332855365e-01 8.0618905907086191e-01 6.5980389567869580e-01 1.0818534137567701e+00 1.0266708421306308e+00 1.0552028572250556e+00 1.2759192498377669e-01 4.8236482109972517e-01 5.6086187745595717e-01 4.1431485073813712e-01 5.7210583726404729e-01 2.5322314432325727e-01 2.4578209355964648e-01 2.4790052800820250e-01 4.9167162563632560e-01 3.9873356475560440e-01 4.9051818154322924e-01 8.2345719117540739e-01 6.5749631632910888e-01 5.5823037491737959e-01 4.5746349178966228e-01 6.8740502609810283e-01 9.1960146623401462e-01 1.0307293996845863e+00 8.3101357275367960e-01 3.7937490138910324e-01 4.1759673909666317e-01 4.9745863641468063e-01 4.9309300939262024e-01 5.3815857838683323e-01 7.5881100647965760e-01 6.2769551619324782e-01 7.2434511886260267e-01 7.5385167768521999e-01 6.4160008422058212e-01 9.2871239729296806e-01 8.5888439499631686e-01 1.0159250055952340e+00 9.6610897855728806e-01 1.0042431360016846e+00 8.2841001428755723e-01 4.0295235489616954e-01 5.3595657536841523e-01 3.1572560021808732e-01 3.9026608462934809e-01 3.7914049786727166e-01 7.8588264975177902e-01 7.1221563185668790e-01 7.1713183040568751e-01 4.1895585412206893e-01 5.3746736272824813e-01 4.7586094897315251e-01 5.2937392558283236e-01 5.2833302167991347e-01 6.8843979480398132e-01 5.2677078611936001e-01 4.7490884710973658e-01 3.7274535543286141e-01 6.1717744533215835e-01 6.0049942576043325e-01 7.6238363164226119e-01 6.6896848155628674e-01 8.2423471388167457e-01 6.8606751174993086e-01 4.0084965489626323e-01 3.3198203103502777e-01 2.5208672754500466e-01 8.3726910883942551e-01 7.1843335107194295e-01 5.7855374446933006e-01 1.2732116550872328e+00 1.2405207953699773e+00 1.1940545136490957e+00 1.1841608048619983e+00 1.2458888533094021e+00 1.1447337837444240e+00 1.1627578968736514e+00 1.1093158069400144e+00 1.2317786478658497e+00 1.1341049650120467e+00 9.6336303194801320e-01 1.1503634582284821e+00 1.3148684241259465e+00 1.1735433805895708e+00 1.2728479965904251e+00 1.3814477545220103e+00 1.3772139311685456e+00 1.2234393323017034e+00 1.3195338614611154e+00 1.1040633856221018e+00 1.2302990421151345e+00 1.2870142477229831e+00 1.1239650207741394e+00 1.2763422935378081e+00 1.2447178016962472e+00 1.2427331602379266e+00 1.0815628614788826e+00 3.4454960281846342e-01 2.2325198004470567e-01 6.1524442874312808e-02 1.0186786564113223e-01 4.4995055935566637e-02 1.6029765957073955e-01 2.0188630806636532e-01 2.1710161933855454e-01 3.2246106318212564e-01 2.5824722780587672e-01 2.2514294399826773e-01 1.6336638646467055e-01 1.3691267406130497e-01 6.0925465914620225e-01 5.2874893296539205e-01 6.2484639680181475e-01 3.3556640695578110e-01 5.6495441317549122e-01 9.0101073446449154e-01 1.2318754473725756e-01 7.1135412506145287e-02 9.7825115300367291e-02 1.6427519937788924e-02 1.5409006248530735e-01 1.0873962702600316e-02 1.3997796754415814e-01 3.6693265267010161e-01 9.4672546704733004e-02 2.6341314554130008e-01 4.3120939674494962e-01 3.1702799484184963e-01 2.9539587635488440e-01 5.8603067617678750e-01 4.7874497342516442e-01 5.7632749030211450e-01 9.0973943398485368e-01 8.0544276455112551e-01 5.7452197069642708e-01 7.4427226636522337e-01 3.7179918990852873e-01 8.4920502892674810e-01 6.8160321223143727e-01 7.3741797676920329e-01 9.4543050357756919e-01 7.7236999171005327e-01 6.5753206279897247e-01 7.7137912905745121e-01 5.4716494441519781e-01 5.0097719140204822e-01 3.8762277970393716e-01 6.3073069790558600e-01 4.1890035738805420e-01 7.3219514975583089e-01 4.2810593552357312e-01 8.2177345778978050e-01 7.3888805579274730e-01 7.5120873431072011e-01 9.7632347433481703e-01 9.9532653510871844e-02 7.7709333521962076e-02 2.7894322133441929e-01 1.4058612153151523e-01 3.3669950612359412e-01 3.4251837930676210e-01 4.6376589561552389e-01 2.6881556286482611e-01 1.5698819101515096e+00 1.4124822898773273e+00 1.4896420719778938e+00 1.4991769208860086e+00 1.4116218807532452e+00 3.3349724623661164e-01 9.8982622602464959e-02 6.1434676950791786e-02 8.5360471341352245e-02 3.0554116068085091e-01 3.4462846647999751e-01 4.4951353184750159e-01 3.1361609305778726e-01 5.1958374501976756e-01 1.3994582072734355e-01 2.8226213848328346e-01 7.6652278123442219e-02 1.0031159823736853e+00 1.2774916765012376e+00 1.1246142934283729e+00 1.3097893514338970e+00 1.2306500572200849e+00 1.1768093742843324e+00 1.2620548334953163e+00 1.1701961730805337e+00 1.1430844067869950e+00 9.4141242736818809e-01 1.4357039138695793e+00 1.5225811756450591e+00 1.3354056842642059e+00 1.3078214536938453e+00 1.3115857104785285e+00 1.1010841656429005e+00 1.1906051587464894e+00 1.2157300541188363e+00 1.2489745128095946e+00 1.1999654329523493e+00 9.1722992391864944e-01 1.0318573088397864e+00 9.6572986760344670e-01 7.0166581113322224e-01 7.8006091719117843e-01 8.5699864495859746e-01 1.0248688199269007e+00 9.5863559783031382e-01 7.6399371265831950e-01 9.1689112785830518e-01 7.8789780021082978e-01 9.7262324920778676e-01 4.9703358724280577e-01 7.5378138027365393e-01 6.7308752445770859e-01 9.8398242229594635e-01 1.0747305046798339e+00 1.1256744326685513e+00 1.0896348888171423e+00 8.3372878241999082e-01 9.5788207612889353e-01 9.3064810450437019e-01 5.2232364869835113e-01 8.3774801363339080e-01 4.4751443847852646e-01 4.1932307514434558e-01 5.8785997396930201e-01 5.4321897339849690e-01 1.4280642873426119e+00 1.2917992095152366e+00 1.0540935439131713e+00 1.2002155271087651e+00 1.0635236348568906e+00 3.2762787195647070e-01 4.5290110685540186e-01 1.4847907267435512e-01 2.6887134260196521e-01 4.6134924411220651e-01 3.4407368724044834e-01 7.0109743745826875e-02 1.2375845077704653e-01 1.3759390641329801e+00 1.3853067610967356e+00 1.5697747931689965e+00 1.5457368019498361e+00 1.4916763799952746e+00 1.5184719569345639e+00 1.6147762854859748e+00 6.0401079237730512e-02 2.4936633672008882e-01 4.9270871055663169e-02 6.7171279485902943e-02 1.6053719751065674e+00 1.5700623256774386e+00 1.6176236097517047e+00 1.5183337413497067e+00 1.4827942547401429e+00 1.5484803465286974e+00 1.2654523478554132e+00 2.8273233891850175e-01 1.5422037256658105e+00 1.5953455571709076e+00 1.5191258408802237e+00 1.0929650072781119e+00 1.1668098337947526e+00 1.0625256353695973e+00 1.2142303790447178e+00 4.6820338654597421e-01 9.3678972649186143e-01 7.8805117602838870e-01 9.1314059914057055e-01 8.0369414750229562e-01 7.7309083815764412e-01 5.5123347241052656e-01 4.8154388043577068e-01 5.3560016659701060e-01 5.8637221576398324e-01 7.5376670888624531e-01 6.2730248732812732e-01 6.1921364008452140e-01 5.9022232097353289e-01 8.2941560763223698e-01 7.0927244933598788e-01 8.4800161621542469e-01 8.3206421393342023e-01 6.5710395104854236e-01 7.0093562269549725e-01 9.8795528825111656e-01 6.1281774129890620e-01 7.6256989209411619e-01 9.3244218766345721e-01 6.9185343700980084e-01 4.3643105269242760e-01 5.4237316159184135e-01 1.0589218677252101e+00 5.0465923688771608e-01 4.6061475363947890e-01 6.3285133120484915e-01 5.4611890084653336e-01 6.7720378951910210e-01 7.0749999348010317e-01 7.9064041650735728e-01 1.9792186636087858e-01 1.6210281174696858e-01 8.4193128446128820e-02 1.2968362639383557e-01 1.4337579802042242e+00 1.5083894216299498e+00 1.3128485491354618e+00 1.2872467527792164e+00 1.4018517213323674e+00 1.3479386488456320e+00 1.5837409634208659e+00 1.4517945757935058e+00 1.4097361043979508e+00 1.3872325255944142e+00 1.5657446108781801e+00 1.2156913734560269e-02 8.9826812434516248e-02 3.4661378101213988e-02 1.3936867224593519e-01 5.1931541134994152e-02 9.9713903661176029e-01 1.0054661430451945e+00 9.9353461744301486e-01 1.1865983423170263e+00 1.2884200642847063e+00 1.1966256507029085e+00 1.3218321821695738e+00 1.0375522557771126e+00 1.0433508132208247e+00 1.1466693874443132e+00 1.0774360431959407e+00 1.1050584923814974e+00 1.1507442481265588e+00 1.0146702343118101e+00 1.0668445843111085e+00 1.2057997217355090e+00 1.1497748697255652e+00 1.4011293966015765e+00 9.6690791423613942e-01 2.1743332926693962e-02 1.0058827157440589e+00 1.0304243916025502e+00 1.0953083125448049e+00 1.0130365141041731e+00 1.0284796797206670e+00 1.2321044048188330e+00 1.1355342165708247e+00 1.1451447700005839e+00 1.2887508270703383e+00 1.0055430954057591e+00 1.0204216525858811e+00 1.2243269673030599e+00 1.4344865595131076e+00 9.7424698871553594e-01 1.2772234420798643e+00 8.6879819289274973e-01 1.3798060354058208e+00 9.8109832096404226e-01 8.4027252169192290e-01 9.1659774249422565e-01 1.2924346310577124e+00 9.7309587078816973e-01 1.0482997376045244e+00 1.0836615151787112e+00 1.3204752117018317e+00 1.1855827071998479e+00 1.2625953803802985e+00 1.0599037968204565e+00 1.2379488782352743e+00 9.9265738708382489e-01 1.0012354793700249e+00 1.4683729349000345e+00 1.3868019794540687e+00 1.3535477538872347e+00 1.0018804286396892e+00 7.8142361817348446e-03 9.8500676124466180e-01 9.8881930807031360e-01 9.3067088374724005e-01 9.1209750947939905e-01 9.5038897922076049e-01 6.2873917483647235e-01 7.2301202994111591e-01 9.1552676936982835e-01 4.3907722225251072e-01 5.3639866554993776e-01 6.4244734857879060e-01 7.2977837570888326e-01 8.3661916609427101e-01 7.1005456726599414e-01 7.7468633861463232e-01 9.7912952763006644e-01 8.3558106637911589e-01 5.7917485129670976e-01 8.7765843561607815e-01 1.1614608881675255e+00 9.5090537416971821e-01 4.0623253187330444e-01 3.6897210679931625e-01 1.3834294639040687e-01 1.4983862800601733e-01 1.9768314544161544e-01 2.5681547210959293e-01 3.3790295976594542e-01 3.3424930710188561e-01 4.2621954729962047e-01 1.8224418458306785e-01 1.2946509167140360e-01 8.2261349941466430e-02 6.2467245994931014e-03 4.5189915788754406e-02 5.4047903300227913e-02 2.0429939438477419e-02 3.3842849457426333e-01 2.5488109612244830e-01 3.0238620452838072e-01 1.9488727017580999e-03 1.0171685462972471e+00 9.3020244094007709e-01 8.4232913672465903e-01 8.7602385640063418e-01 1.3757388125437967e-01 3.6535759725108238e-02 2.7468207513007631e-02 1.1708948788866353e-02 4.7319445743861890e-02 2.6055367730116203e-03 1.0072773895094206e-01 9.6652081488330532e-01 9.4152921875448592e-01 9.9746721297630980e-01 9.9997146761414324e-01 1.3045202515641321e-01 1.4510205133766074e-01 4.6544070274698410e-02 7.7952010561917098e-02 1.0023598465176949e-02 1.8444639057244971e-02 1.2278809133975138e-02 7.4503794733698614e-01 8.8356484035166494e-01 9.1975570522988670e-01 2.0902068586440098e-01 2.4133765364206616e-01 2.6975692427973930e-01 1.9700951816763623e-01 4.8904887616020082e-01 2.7370724365786536e-01 4.6727154959540734e-01 3.5892483417063437e-01 3.9066729927916666e-01 4.5864844235491181e-01 1.7761133952561992e-01 1.1341229615183995e-01 3.6808046265573341e-01 2.9965029941786819e-01 6.2899762735835862e-01 3.6955144811080509e-01 2.7891926403899708e-01 3.8897419375721207e-02 2.2157954581701061e-01 1.0465642295048289e-01 3.0191525748666022e-02 5.9100536889158439e-01 6.3377563612301890e-01 7.6501514025403450e-01 1.3422853356452178e+00 1.2366831933471296e+00 1.2911796517725258e+00 1.1345843659861239e+00 1.1964103168033806e+00 8.3522591017711223e-01 1.0967276037143812e+00 1.0089299434923533e+00 1.0796989797483869e+00 1.1778887827704947e+00 1.3914234163487360e+00 1.4066990393843466e+00 1.5027668428158394e+00 1.4666984843568620e+00 1.0922956559769232e+00 7.9988872802479083e-01 7.9795460227129167e-01 7.8800919663537194e-01 9.9023478357944106e-01 9.8430539145270579e-01 1.0738219678035752e+00 1.0603298780553891e+00 9.3319271107202639e-01 1.0528623237566437e+00 9.2291972859737026e-01 1.1586921955796516e+00 1.0655514568250410e+00 1.2374018206143018e+00 1.1238994303577785e+00 1.1632916119582695e+00 7.1217845690596127e-01 7.1745063058058878e-01 8.5781131771605512e-01 6.8425592347963071e-01 6.8233836768062051e-01 6.2161905043422772e-01 4.9666969941254979e-01 3.9041852100758012e-01 3.7062858117687225e-01 3.1579157305832628e-01 3.1962179908072214e-01 2.4085558740594665e-01 2.2837989084517138e-01 2.6994781542530188e-01 2.0772447127364546e-01 1.5700142276134818e-01 2.1536067720335231e-01 1.1847720109048968e-01 4.7033207910213475e-02 1.0128284858317335e-01 8.3145532511022385e-02 1.6247511692430430e-01 2.4419724669832532e-01 2.5027103289188113e-01 1.9660165400732699e-01 4.5011150992215192e-02 8.3783627580449799e-02 5.3429502513145325e-03 2.7841345128280744e-02 6.7026358503869139e-03 2.2206594194872886e-01 8.0435982152417498e-02 5.5868903313250874e-02 1.0600909932582361e+00 5.3219331836881001e-01 7.4467660239116884e-01 5.6331620891772338e-01 5.7945652494499356e-01 6.3178579145833336e-01 7.5030944775567632e-01 6.9753967170895992e-01 8.2597463624484813e-01 5.8249940254081334e-01 7.5202212836630877e-01 6.6343185403759863e-01 7.5464284652706826e-01 7.4359435784633687e-01 9.7598093266018204e-01 9.0318991836622031e-01 9.2927139333023767e-01 8.0032977983881071e-01 9.5452480146699004e-01 4.1928070457716748e-01 4.0921749551782166e-01 5.9743308204573564e-01 6.2133293151812297e-01 5.5617046992698060e-01 4.8081105091972681e-01 5.2966788385115726e-01 3.9995196890629758e-01 3.16896