<?xml version="1.0"?>
<VTKFile type="UnstructuredGrid"  byte_order="LittleEndian">
<UnstructuredGrid>
<Piece NumberOfPoints="1465" NumberOfCells=" 2932">
<Points>
<DataArray type="Float32" NumberOfComponents="3" format="ascii">
4.883394 3.292270 0.000000 13.300841 3.159190 0.000000 0.041611 -4.268239 0.000000 35.463531 -4.268239 0.000000 0.041611 5.706200 0.000000 35.463531 5.706200 0.000000 4.877176 3.416864 0.000000 4.858583 3.540220 0.000000 4.827800 3.661111 0.000000 4.785134 3.778337 0.000000 4.731008 3.890731 0.000000 4.665959 3.997178 0.000000 4.590635 4.096620 0.000000 4.505784 4.188067 0.000000 4.412250 4.270612 0.000000 4.310962 4.343433 0.000000 4.202926 4.405807 0.000000 4.089217 4.457115 0.000000 3.970964 4.496846 0.000000 3.849343 4.524605 0.000000 3.725562 4.540117 0.000000 3.600852 4.543227 0.000000 3.476452 4.533905 0.000000 3.353598 4.512242 0.000000 3.233512 4.478455 0.000000 3.117387 4.432879 0.000000 3.006376 4.375968 0.000000 2.901584 4.308285 0.000000 2.804051 4.230505 0.000000 2.714748 4.143402 0.000000 2.634561 4.047838 0.000000 2.564287 3.944766 0.000000 2.504625 3.835209 0.000000 2.456169 3.720256 0.000000 2.419398 3.601049 0.000000 2.394680 3.478774 0.000000 2.382259 3.354645 0.000000 2.382259 3.229896 0.000000 2.394680 3.105767 0.000000 2.419398 2.983492 0.000000 2.456169 2.864285 0.000000 2.504625 2.749332 0.000000 2.564287 2.639775 0.000000 2.634561 2.536702 0.000000 2.714748 2.441139 0.000000 2.804051 2.354035 0.000000 2.901584 2.276255 0.000000 3.006376 2.208573 0.000000 3.117387 2.151662 0.000000 3.233512 2.106086 0.000000 3.353598 2.072299 0.000000 3.476452 2.050636 0.000000 3.600852 2.041314 0.000000 3.725562 2.044424 0.000000 3.849343 2.059936 0.000000 3.970964 2.087695 0.000000 4.089217 2.127426 0.000000 4.202926 2.178733 0.000000 4.310962 2.241108 0.000000 4.412250 2.313929 0.000000 4.505784 2.396474 0.000000 4.590635 2.487921 0.000000 4.665959 2.587362 0.000000 4.731008 2.693809 0.000000 4.785134 2.806204 0.000000 4.827800 2.923430 0.000000 4.858583 3.044321 0.000000 4.877176 3.167676 0.000000 13.296174 3.252691 0.000000 13.282222 3.345263 0.000000 13.259121 3.435986 0.000000 13.227101 3.523957 0.000000 13.186482 3.608304 0.000000 13.137667 3.688187 0.000000 13.081141 3.762813 0.000000 13.017465 3.831439 0.000000 12.947271 3.893384 0.000000 12.871260 3.948033 0.000000 12.790185 3.994842 0.000000 12.704852 4.033346 0.000000 12.616109 4.063161 0.000000 12.524838 4.083993 0.000000 12.431948 4.095634 0.000000 12.338360 4.097968 0.000000 12.245004 4.090972 0.000000 12.152808 4.074716 0.000000 12.062690 4.049360 0.000000 11.975544 4.015158 0.000000 11.892236 3.972448 0.000000 11.813595 3.921657 0.000000 11.740402 3.863287 0.000000 11.673384 3.797920 0.000000 11.613208 3.726205 0.000000 11.560472 3.648854 0.000000 11.515698 3.566637 0.000000 11.479334 3.480371 0.000000 11.451739 3.390913 0.000000 11.433189 3.299151 0.000000 11.423868 3.205999 0.000000 11.423868 3.112381 0.000000 11.433189 3.019229 0.000000 11.451739 2.927468 0.000000 11.479334 2.838009 0.000000 11.515698 2.751743 0.000000 11.560472 2.669526 0.000000 11.613208 2.592175 0.000000 11.673384 2.520460 0.000000 11.740402 2.455093 0.000000 11.813595 2.396724 0.000000 11.892236 2.345932 0.000000 11.975544 2.303222 0.000000 12.062690 2.269020 0.000000 12.152808 2.243665 0.000000 12.245004 2.227408 0.000000 12.338360 2.220412 0.000000 12.431948 2.222746 0.000000 12.524838 2.234387 0.000000 12.616109 2.255219 0.000000 12.704852 2.285034 0.000000 12.790185 2.323538 0.000000 12.871260 2.370347 0.000000 12.947271 2.424996 0.000000 13.017465 2.486941 0.000000 13.081141 2.555568 0.000000 13.137667 2.630193 0.000000 13.186482 2.710076 0.000000 13.227101 2.794423 0.000000 13.259121 2.882394 0.000000 13.282222 2.973117 0.000000 13.296174 3.065689 0.000000 1.025553 -4.268239 0.000000 2.009495 -4.268239 0.000000 2.993437 -4.268239 0.000000 3.977380 -4.268239 0.000000 4.961322 -4.268239 0.000000 5.945264 -4.268239 0.000000 6.929206 -4.268239 0.000000 7.913149 -4.268239 0.000000 8.897091 -4.268239 0.000000 9.881033 -4.268239 0.000000 10.864976 -4.268239 0.000000 11.848918 -4.268239 0.000000 12.832860 -4.268239 0.000000 13.816802 -4.268239 0.000000 14.800745 -4.268239 0.000000 15.784687 -4.268239 0.000000 16.768629 -4.268239 0.000000 17.752571 -4.268239 0.000000 18.736513 -4.268239 0.000000 19.720457 -4.268239 0.000000 20.704399 -4.268239 0.000000 21.688341 -4.268239 0.000000 22.672283 -4.268239 0.000000 23.656225 -4.268239 0.000000 24.640167 -4.268239 0.000000 25.624109 -4.268239 0.000000 26.608051 -4.268239 0.000000 27.591995 -4.268239 0.000000 28.575937 -4.268239 0.000000 29.559879 -4.268239 0.000000 30.543821 -4.268239 0.000000 31.527763 -4.268239 0.000000 32.511707 -4.268239 0.000000 33.495647 -4.268239 0.000000 34.479591 -4.268239 0.000000 0.041611 4.708756 0.000000 0.041611 3.711312 0.000000 0.041611 2.713868 0.000000 0.041611 1.716424 0.000000 0.041611 0.718980 0.000000 0.041611 -0.278464 0.000000 0.041611 -1.275908 0.000000 0.041611 -2.273352 0.000000 0.041611 -3.270796 0.000000 35.463531 -3.270796 0.000000 35.463531 -2.273352 0.000000 35.463531 -1.275908 0.000000 35.463531 -0.278464 0.000000 35.463531 0.718980 0.000000 35.463531 1.716424 0.000000 35.463531 2.713868 0.000000 35.463531 3.711312 0.000000 35.463531 4.708756 0.000000 34.479591 5.706200 0.000000 33.495647 5.706200 0.000000 32.511707 5.706200 0.000000 31.527763 5.706200 0.000000 30.543821 5.706200 0.000000 29.559879 5.706200 0.000000 28.575937 5.706200 0.000000 27.591995 5.706200 0.000000 26.608051 5.706200 0.000000 25.624109 5.706200 0.000000 24.640167 5.706200 0.000000 23.656225 5.706200 0.000000 22.672283 5.706200 0.000000 21.688341 5.706200 0.000000 20.704399 5.706200 0.000000 19.720457 5.706200 0.000000 18.736513 5.706200 0.000000 17.752571 5.706200 0.000000 16.768629 5.706200 0.000000 15.784687 5.706200 0.000000 14.800745 5.706200 0.000000 13.816802 5.706200 0.000000 12.832860 5.706200 0.000000 11.848918 5.706200 0.000000 10.864976 5.706200 0.000000 9.881033 5.706200 0.000000 8.897091 5.706200 0.000000 7.913149 5.706200 0.000000 6.929206 5.706200 0.000000 5.945264 5.706200 0.000000 4.961322 5.706200 0.000000 3.977380 5.706200 0.000000 2.993437 5.706200 0.000000 2.009495 5.706200 0.000000 1.025553 5.706200 0.000000 17.326864 -3.512777 0.000000 17.236214 4.897590 0.000000 8.462604 -3.448112 0.000000 20.162809 -3.253001 0.000000 23.160585 4.852018 0.000000 26.955229 -3.414781 0.000000 30.064650 4.774436 0.000000 14.495652 -3.427186 0.000000 11.234235 -3.531232 0.000000 5.414552 -3.424056 0.000000 24.182753 -3.316016 0.000000 26.115604 4.880483 0.000000 20.212427 4.854081 0.000000 29.977459 -3.431556 0.000000 8.444136 4.932395 0.000000 0.869823 -0.768505 0.000000 34.599796 1.276269 0.000000 2.421318 2.646254 0.000000 2.317514 2.864627 0.000000 2.267368 3.162476 0.000000 2.280970 3.427466 0.000000 2.310722 3.689614 0.000000 2.440244 3.927590 0.000000 2.560668 4.202402 0.000000 2.765577 4.377928 0.000000 2.986757 4.527557 0.000000 3.246843 4.641820 0.000000 3.488712 4.669630 0.000000 3.800886 4.639558 0.000000 4.074692 4.626160 0.000000 4.263564 4.522338 0.000000 4.515625 4.311974 0.000000 4.709577 4.098124 0.000000 15.238623 4.863878 0.000000 13.096376 3.853451 0.000000 3.519126 -3.283767 0.000000 34.599720 -0.777186 0.000000 31.903894 4.768129 0.000000 32.072678 -3.462901 0.000000 22.180311 -3.416120 0.000000 28.055653 4.943346 0.000000 11.806335 4.032391 0.000000 12.900205 4.053986 0.000000 6.453178 5.050592 0.000000 4.910042 3.757476 0.000000 0.873762 1.256999 0.000000 2.683965 2.320248 0.000000 12.392329 4.209299 0.000000 34.599720 3.212590 0.000000 12.088704 4.192975 0.000000 10.390554 5.046797 0.000000 11.515244 3.740899 0.000000 0.890124 4.181929 0.000000 11.230833 5.021337 0.000000 10.868881 4.363741 0.000000 0.802033 -2.764494 0.000000 34.626030 -2.786324 0.000000 11.948029 5.013783 0.000000 12.841401 4.828680 0.000000 33.984871 4.866930 0.000000 9.431377 5.090598 0.000000 9.894827 4.309967 0.000000 7.494345 4.923263 0.000000 7.745811 4.347218 0.000000 0.852465 0.412458 0.000000 1.580419 -0.239252 0.000000 1.495298 0.822269 0.000000 3.008832 2.069988 0.000000 1.573287 1.393304 0.000000 2.004622 1.071806 0.000000 2.065939 1.540633 0.000000 1.762499 1.846506 0.000000 2.465479 1.297471 0.000000 2.419782 0.833129 0.000000 2.790703 1.025408 0.000000 2.792673 0.623063 0.000000 3.121859 0.830791 0.000000 3.160192 0.423772 0.000000 3.510907 0.648938 0.000000 3.934193 1.968488 0.000000 3.523680 0.212816 0.000000 3.894415 0.425657 0.000000 3.896735 -0.011997 0.000000 4.284726 0.211740 0.000000 4.193340 2.039886 0.000000 3.666545 1.932803 0.000000 3.397212 1.946613 0.000000 3.506744 -0.241104 0.000000 4.285781 -0.246197 0.000000 4.678311 -0.005662 0.000000 4.662879 0.435280 0.000000 5.053874 0.234751 0.000000 5.002215 0.702007 0.000000 5.396175 0.472144 0.000000 5.366023 0.923856 0.000000 5.725396 0.695184 0.000000 5.722182 1.074345 0.000000 6.042526 0.894205 0.000000 4.941096 2.958900 0.000000 6.032770 1.259525 0.000000 6.345609 1.087572 0.000000 4.790669 2.584252 0.000000 6.365541 0.734257 0.000000 6.671332 0.928616 0.000000 6.326190 1.433045 0.000000 6.691266 0.558737 0.000000 7.009669 0.763534 0.000000 4.530503 2.274198 0.000000 5.432525 0.046051 0.000000 7.027015 0.381105 0.000000 7.354695 0.593396 0.000000 7.332709 0.979253 0.000000 7.681639 0.810886 0.000000 7.699713 0.418361 0.000000 8.025304 0.638580 0.000000 8.005934 1.012990 0.000000 8.347132 0.848003 0.000000 8.369246 0.483180 0.000000 8.684620 0.688293 0.000000 8.667638 1.050521 0.000000 8.999469 0.891511 0.000000 9.011012 0.523023 0.000000 9.317435 0.725097 0.000000 9.301817 1.072586 0.000000 9.596281 0.924878 0.000000 9.577659 1.246946 0.000000 11.364329 2.957508 0.000000 9.852241 1.113859 0.000000 11.461475 2.669276 0.000000 9.833812 1.403977 0.000000 10.091908 1.285272 0.000000 10.115443 0.991934 0.000000 10.357841 1.168981 0.000000 11.726449 2.362521 0.000000 10.389083 0.879724 0.000000 10.632998 1
[...]
<CellData Scalars="Label">
<DataArray type="Int32" Name="Label" format="ascii">
1 1 1 1 1 1 1 1 1 1 1 1 1 1 1 1 1 1 1 1 1 1 1 1 1 1 1 1 1 1 1 1 1 1 1 1 1 1 1 1 1 1 1 1 1 1 1 1 1 1 1 1 1 1 1 1 1 1 1 1 1 1 1 1 1 1 1 1 1 1 1 1 1 1 1 1 1 1 1 1 1 1 1 1 1 1 1 1 1 1 1 1 1 1 1 1 1 1 1 1 1 1 1 1 1 1 1 1 1 1 1 1 1 1 1 1 1 1 1 1 1 1 1 1 1 1 1 1 1 1 1 1 1 1 1 1 1 1 1 1 1 1 1 1 1 1 1 1 1 1 1 1 1 1 1 1 1 1 1 1 1 1 1 1 1 1 1 1 1 1 1 1 1 1 1 1 1 1 1 1 1 1 1 1 1 1 1 1 1 1 1 1 1 1 1 1 1 1 1 1 1 1 1 1 1 1 1 1 1 1 1 1 1 1 1 1 1 1 1 1 1 1 1 1 1 1 1 1 1 1 1 1 1 1 1 1 1 1 1 1 1 1 1 1 1 1 1 1 1 1 1 1 1 1 1 1 1 1 1 1 1 1 1 1 1 1 1 1 1 1 1 1 1 1 1 1 1 1 1 1 1 1 1 1 1 1 1 1 1 1 1 1 1 1 1 1 1 1 1 1 1 1 1 1 1 1 1 1 1 1 1 1 1 1 1 1 1 1 1 1 1 1 1 1 1 1 1 1 1 1 1 1 1 1 1 1 1 1 1 1 1 1 1 1 1 1 1 1 1 1 1 1 1 1 1 1 1 1 1 1 1 1 1 1 1 1 1 1 1 1 1 1 1 1 1 1 1 1 1 1 1 1 1 1 1 1 1 1 1 1 1 1 1 1 1 1 1 1 1 1 1 1 1 1 1 1 1 1 1 1 1 1 1 1 1 1 1 1 1 1 1 1 1 1 1 1 1 1 1 1 1 1 1 1 1 1 1 1 1 1 1 1 1 1 1 1 1 1 1 1 1 1 1 1 1 1 1 1 1 1 1 1 1 1 1 1 1 1 1 1 1 1 1 1 1 1 1 1 1 1 1 1 1 1 1 1 1 1 1 1 1 1 1 1 1 1 1 1 1 1 1 1 1 1 1 1 1 1 1 1 1 1 1 1 1 1 1 1 1 1 1 1 1 1 1 1 1 1 1 1 1 1 1 1 1 1 1 1 1 1 1 1 1 1 1 1 1 1 1 1 1 1 1 1 1 1 1 1 1 1 1 1 1 1 1 1 1 1 1 1 1 1 1 1 1 1 1 1 1 1 1 1 1 1 1 1 1 1 1 1 1 1 1 1 1 1 1 1 1 1 1 1 1 1 1 1 1 1 1 1 1 1 1 1 1 1 1 1 1 1 1 1 1 1 1 1 1 1 1 1 1 1 1 1 1 1 1 1 1 1 1 1 1 1 1 1 1 1 1 1 1 1 1 1 1 1 1 1 1 1 1 1 1 1 1 1 1 1 1 1 1 1 1 1 1 1 1 1 1 1 1 1 1 1 1 1 1 1 1 1 1 1 1 1 1 1 1 1 1 1 1 1 1 1 1 1 1 1 1 1 1 1 1 1 1 1 1 1 1 1 1 1 1 1 1 1 1 1 1 1 1 1 1 1 1 1 1 1 1 1 1 1 1 1 1 1 1 1 1 1 1 1 1 1 1 1 1 1 1 1 1 1 1 1 1 1 1 1 1 1 1 1 1 1 1 1 1 1 1 1 1 1 1 1 1 1 1 1 1 1 1 1 1 1 1 1 1 1 1 1 1 1 1 1 1 1 1 1 1 1 1 1 1 1 1 1 1 1 1 1 1 1 1 1 1 1 1 1 1 1 1 1 1 1 1 1 1 1 1 1 1 1 1 1 1 1 1 1 1 1 1 1 1 1 1 1 1 1 1 1 1 1 1 1 1 1 1 1 1 1 1 1 1 1 1 1 1 1 1 1 1 1 1 1 1 1 1 1 1 1 1 1 1 1 1 1 1 1 1 1 1 1 1 1 1 1 1 1 1 1 1 1 1 1 1 1 1 1 1 1 1 1 1 1 1 1 1 1 1 1 1 1 1 1 1 1 1 1 1 1 1 1 1 1 1 1 1 1 1 1 1 1 1 1 1 1 1 1 1 1 1 1 1 1 1 1 1 1 1 1 1 1 1 1 1 1 1 1 1 1 1 1 1 1 1 1 1 1 1 1 1 1 1 1 1 1 1 1 1 1 1 1 1 1 1 1 1 1 1 1 1 1 1 1 1 1 1 1 1 1 1 1 1 1 1 1 1 1 1 1 1 1 1 1 1 1 1 1 1 1 1 1 1 1 1 1 1 1 1 1 1 1 1 1 1 1 1 1 1 1 1 1 1 1 1 1 1 1 1 1 1 1 1 1 1 1 1 1 1 1 1 1 1 1 1 1 1 1 1 1 1 1 1 1 1 1 1 1 1 1 1 1 1 1 1 1 1 1 1 1 1 1 1 1 1 1 1 1 1 1 1 1 1 1 1 1 1 1 1 1 1 1 1 1 1 1 1 1 1 1 1 1 1 1 1 1 1 1 1 1 1 1 1 1 1 1 1 1 1 1 1 1 1 1 1 1 1 1 1 1 1 1 1 1 1 1 1 1 1 1 1 1 1 1 1 1 1 1 1 1 1 1 1 1 1 1 1 1 1 1 1 1 1 1 1 1 1 1 1 1 1 1 1 1 1 1 1 1 1 1 1 1 1 1 1 1 1 1 1 1 1 1 1 1 1 1 1 1 1 1 1 1 1 1 1 1 1 1 1 1 1 1 1 1 1 1 1 1 1 1 1 1 1 1 1 1 1 1 1 1 1 1 1 1 1 1 1 1 1 1 1 1 1 1 1 1 1 1 1 1 1 1 1 1 1 1 1 1 1 1 1 1 1 1 1 1 1 1 1 1 1 1 1 1 1 1 1 1 1 1 1 1 1 1 1 1 1 1 1 1 1 1 1 1 1 1 1 1 1 1 1 1 1 1 1 1 1 1 1 1 1 1 1 1 1 1 1 1 1 1 1 1 1 1 1 1 1 1 1 1 1 1 1 1 1 1 1 1 1 1 1 1 1 1 1 1 1 1 1 1 1 1 1 1 1 1 1 1 1 1 1 1 1 1 1 1 1 1 1 1 1 1 1 1 1 1 1 1 1 1 1 1 1 1 1 1 1 1 1 1 1 1 1 1 1 1 1 1 1 1 1 1 1 1 1 1 1 1 1 1 1 1 1 1 1 1 1 1 1 1 1 1 1 1 1 1 1 1 1 1 1 1 1 1 1 1 1 1 1 1 1 1 1 1 1 1 1 1 1 1 1 1 1 1 1 1 1 1 1 1 1 1 1 1 1 1 1 1 1 1 1 1 1 1 1 1 1 1 1 1 1 1 1 1 1 1 1 1 1 1 1 1 1 1 1 1 1 1 1 1 1 1 1 1 1 1 1 1 1 1 1 1 1 1 1 1 1 1 1 1 1 1 1 1 1 1 1 1 1 1 1 1 1 1 1 1 1 1 1 1 1 1 1 1 1 1 1 1 1 1 1 1 1 1 1 1 1 1 1 1 1 1 1 1 1 1 1 1 1 1 1 1 1 1 1 1 1 1 1 1 1 1 1 1 1 1 1 1 1 1 1 1 1 1 1 1 1 1 1 1 1 1 1 1 1 1 1 1 1 1 1 1 1 1 1 1 1 1 1 1 1 1 1 1 1 1 1 1 1 1 1 1 1 1 1 1 1 1 1 1 1 1 1 1 1 1 1 1 1 1 1 1 1 1 1 1 1 1 1 1 1 1 1 1 1 1 1 1 1 1 1 1 1 1 1 1 1 1 1 1 1 1 1 1 1 1 1 1 1 1 1 1 1 1 1 1 1 1 1 1 1 1 1 1 1 1 1 1 1 1 1 1 1 1 1 1 1 1 1 1 1 1 1 1 1 1 1 1 1 1 1 1 1 1 1 1 1 1 1 1 1 1 1 1 1 1 1 1 1 1 1 1 1 1 1 1 1 1 1 1 1 1 1 1 1 1 1 1 1 1 1 1 1 1 1 1 1 1 1 1 1 1 1 1 1 1 1 1 1 1 1 1 1 1 1 1 1 1 1 1 1 1 1 1 1 1 1 1 1 1 1 1 1 1 1 1 1 1 1 1 1 1 1 1 1 1 1 1 1 1 1 1 1 1 1 1 1 1 1 1 1 1 1 1 1 1 1 1 1 1 1 1 1 1 1 1 1 1 1 1 1 1 1 1 1 1 1 1 1 1 1 1 1 1 1 1 1 1 1 1 1 1 1 1 1 1 1 1 1 1 1 1 1 1 1 1 1 1 1 1 1 1 1 1 1 1 1 1 1 1 1 1 1 1 1 1 1 1 1 1 1 1 1 1 1 1 1 1 1 1 1 1 1 1 1 1 1 1 1 1 1 1 1 1 1 1 1 1 1 1 1 1 1 1 1 1 1 1 1 1 1 1 1 1 1 1 1 1 1 1 1 1 1 1 1 1 1 1 1 1 1 1 1 1 1 1 1 1 1 1 1 1 1 1 1 1 1 1 1 1 1 1 1 1 1 1 1 1 1 1 1 1 1 1 1 1 1 1 1 1 1 1 1 1 1 1 1 1 1 1 1 1 1 1 1 1 1 1 1 1 1 1 1 1 1 1 1 1 1 1 1 1 1 1 1 1 1 1 1 1 1 1 1 1 1 1 1 1 1 1 1 1 1 1 1 1 1 1 1 1 1 1 1 1 1 1 1 1 1 1 1 1 1 1 1 1 1 1 1 1 1 1 1 1 1 1 1 1 1 1 1 1 1 1 1 1 1 1 1 1 1 1 1 1 1 1 1 1 1 1 1 1 1 1 1 1 1 1 1 1 1 1 1 1 1 1 1 1 1 1 1 1 1 1 1 1 1 1 1 1 1 1 1 1 1 1 1 1 1 1 1 1 1 1 1 1 1 1 1 1 1 1 1 1 1 1 1 1 1 1 1 1 1 1 1 1 1 1 1 1 1 1 1 1 1 1 1 1 1 1 1 1 1 1 1 1 1 1 1 1 1 1 1 1 1 1 1 1 1 1 1 1 1 1 1 1 1 1 1 1 1 1 1 1 1 1 1 1 1 1 1 1 1 1 1 1 1 1 1 1 1 1 1 1 1 1 1 1 1 1 1 1 1 1 1 1 1 1 1 1 1 1 1 1 1 1 1 1 1 1 1 1 1 1 1 1 1 1 1 1 1 1 1 1 1 1 1 1 1 1 1 1 1 1 1 1 1 1 1 1 1 1 1 1 1 1 1 1 1 1 1 1 1 1 1 1 1 1 1 1 1 1 1 1 1 1 1 1 1 1 1 1 1 1 1 1 1 1 1 1 1 1 1 1 1 1 1 1 1 1 1 1 1 1 1 1 1 1 1 1 1 1 1 1 1 1 1 1 1 1 1 1 1 1 1 1 1 1 1 1 1 1 1 1 1 1 1 1 1 1 1 1 1 1 1 1 1 1 1 1 1 1 1 1 1 1 1 1 1 1 1 1 1 1 1 1 1 1 1 1 1 1 1 1 1 1 1 1 1 1 1 1 1 1 1 1 1 1 1 1 1 1 1 1 1 1 1 1 1 1 1 1 1 1 1 1 1 1 1 1 1 1 1 1 1 1 1 1 1 1 1 1 1 1 1 1 1 1 1 1 1 1 1 1 1 1 1 1 1 1 1 1 1 1 1 1 1 1 1 1 1 1 1 1 1 1 1 1 1 1 1 1 1 1 1 1 1 1 1 1 1 1 1 1 1 1 1 1 1 1 1 1 1 1 1 1 1 1 1 1 1 1 1 1 1 1 1 1 1 1 1 1 1 1 1 1 1 1 1 1 1 1 1 1 1 1 1 1 1 1 1 1 1 1 1 1 1 1 1 1 1 1 1 1 1 1 1 1 1 1 1 1 1 1 1 1 1 1 1 1 1 1 1 1 1 1 1 1 1 1 1 1 1 1 1 1 1 1 1 1 1 1 1 1 1 1 1 1 1 1 1 1 1 1 1 1 1 1 1 1 1 1 1 1 1 1 1 1 1 1 1 1 1 1 5 5 5 5 5 5 5 5 5 5 5 5 5 5 5 5 5 5 5 5 5 5 5 5 5 5 5 5 5 5 5 5 5 5 5 5 5 5 5 5 5 5 5 5 5 5 5 5 5 5 5 5 5 5 5 5 5 5 5 5 5 5 5 5 5 5 5 5 5 5 5 5 5 5 5 5 5 5 5 5 5 5 5 5 5 5 5 5 5 5 5 5 5 5 5 5 5 5 5 5 5 5 5 5 5 5 5 5 5 5 5 5 5 5 5 5 5 5 5 5 5 5 5 5 5 5 4 4 4 4 4 4 4 4 4 4 4 4 4 4 4 4 4 4 4 4 4 4 4 4 4 4 4 4 4 4 4 4 4 4 4 4 2 2 2 2 2 2 2 2 2 2 3 3 3 3 3 3 3 3 3 3 4 4 4 4 4 4 4 4 4 4 4 4 4 4 4 4 4 4 4 4 4 4 4 4 4 4 4 4 4 4 4 4 4 4 4 4 
</DataArray>
<DataArray type="Float64" Name="u" NumberOfComponents="1" format="ascii">
6.0295598950670840e-02 1.3785504299846696e+00 2.1816653013741258e-01 1.5781353375055540e-01 7.8093145787282081e-01 3.4073323032168035e-01 6.3842602266442938e-01 2.7986839131118757e-01 1.2344633928419868e+00 8.9696189447353844e-02 4.8562440014828390e-01 1.0915254410971926e+00 5.6720720871498909e-01 9.0803443741544476e-02 4.6828452891395367e-01 2.5878296359570363e-01 9.7505247177827870e-01 6.0497852939159780e-01 4.3394360486961291e-02 5.5744842706198616e-01 1.2262141196231688e+00 4.5339722189763915e-01 6.1359322514552073e-01 4.0566563900826899e-02 5.3239482377364622e-01 1.0065922955851772e+00 9.9095609512007210e-01 9.7808810984105188e-01 2.3426502398760686e-02 5.9554834187106309e-01 1.2460935923716892e+00 7.7399045491591323e-02 2.3965414176660343e-01 1.0056391932159292e+00 1.2162147443790032e+00 7.5919699554684117e-01 2.4265017969746772e-01 1.0247283069584112e-01 1.0759812078474393e+00 6.9972047256364034e-01 1.5822430532729603e+00 3.7209648983384913e-01 1.1708307392610997e+00 6.4053473371515901e-02 2.5340374811046590e-01 1.2008781240797854e+00 8.8113018025214784e-01 9.3184835046587491e-02 1.3672509218937423e-01 9.8306398636480630e-01 8.5084609660318256e-01 3.2561902613693033e-01 1.7846595573904640e+00 1.3460345955320236e+00 1.1477591873252957e+00 1.2143212302091015e+00 1.5560160996554948e+00 1.0922368413262558e-01 3.9444829338212239e-01 6.1543204926642636e-01 5.5645990200736151e-01 9.9125319752562591e-01 9.9318925601706209e-01 1.7216976937446378e+00 1.1051260739881479e-01 3.7088820510412157e-01 7.4814874102484927e-02 1.2190712393517242e+00 8.5066460535387842e-02 9.9410094508327440e-01 3.1052386011026423e-01 7.2112978727641407e-03 1.0666544533946016e+00 1.0056941910880379e+00 1.1500445490040052e+00 2.0333860553576677e-01 1.1609510331692969e+00 9.7418265808345406e-01 3.4724772672514248e-01 1.0976895858190325e-01 1.0701061502591367e+00 1.4285942939710164e-01 5.1669777336895506e-01 1.4581878505541734e+00 6.5202959740498723e-01 5.3793543079079753e-01 1.8767599584959345e+00 3.2529966220918041e-02 3.2138748683607790e-02 9.9804424689294269e-01 1.7113117416997700e-01 1.8385660632314387e+00 5.7731473302233538e-01 5.0609097411961745e-01 2.2933343471867090e-01 9.8098294127356778e-01 5.4449166575326013e-01 4.5569441869497374e-01 2.1797729613991090e-01 1.5135694831730988e+00 3.5261004644224558e-01 7.0906768136872012e-01 1.8309116108507915e+00 1.9380113395530091e-01 9.1664459164550971e-01 1.3822777487925451e+00 1.3631722365887955e-01 1.1277429256095539e+00 6.7851367754709302e-01 1.8547874104912324e-01 1.2715618970467433e+00 7.4045612845845510e-01 7.4257599992102197e-01 1.4272193687742823e-01 4.2803239456900533e-01 9.5378376797941189e-01 5.2197681363321935e-01 3.6964822756586041e-01 1.2260005795894067e+00 3.0822612444215569e-01 1.1733207581566734e+00 2.4933877301387436e-01 1.1488930908244797e+00 4.6950859465999195e-01 6.9494257321261110e-01 1.2436588917535814e+00 2.6706306076655800e-01 8.9631638256685831e-01 1.1552053493988557e+00 1.3112577530923994e+00 5.9290084708412105e-01 9.1750118532893632e-01 1.3705886518061536e+00 1.1813701570879398e+00 5.0806266017634949e-01 7.6771253930409333e-01 1.1086630728118244e-01 1.7232272429742621e+00 3.0883149659591641e-01 7.5881767931029492e-02 6.2448969749056871e-01 4.6689037913210329e-01 1.2615252380409787e+00 6.8965410788456927e-01 1.3948945613444874e-01 6.7570691651406389e-01 1.6764264085284020e-01 5.8535395712398230e-01 7.5886299869631735e-01 1.1128296593785385e+00 1.2960309235655681e-01 3.6218937862995176e-01 7.5760658881691900e-01 1.8535012684716556e-01 4.6948641187358542e-01 1.2199548947883270e+00 9.7683745518104126e-01 4.4061400878791479e-01 1.6461391512719361e+00 1.7849809533260150e-01 1.1052127080037457e+00 3.2471210922722135e-02 1.0404912568261289e+00 5.0837835011411203e-01 7.8321939805507168e-01 1.0013889516560304e+00 1.7937757817438227e-01 3.2892814665300874e-01 9.3390825378225273e-01 5.5068598709842598e-01 1.0801904269174758e+00 9.9138215058267387e-01 2.9084755915548322e-01 5.5290196248856738e-01 3.3957390015616185e-01 2.4237723653560225e-01 1.3981241269526662e-01 4.2642464797538226e-01 4.9665608015352358e-02 1.0172840504151575e+00 4.0943288075929624e-01 5.7906568840494707e-02 3.7322946617128638e-01 5.1763157092483070e-01 1.2857617017942574e-01 7.5245285284830077e-01 4.6473946783972675e-01 2.0796156669560878e-01 1.0086424498698228e+00 9.2613349789032451e-01 6.4608319789656332e-01 1.8965089449855632e+00 1.0343511010118915e+00 1.0495012548274980e+00 2.5343876458906744e-02 1.6193440773543131e+00 5.9449612051364453e-01 3.9219663357583912e-01 2.7802751230115696e-01 1.6059744984098681e-01 8.4800597976260272e-02 6.0627721085751507e-01 1.9912599400159731e-01 3.4846690559994353e-01 7.4302634536063761e-01 4.5170655258675851e-01 1.2857752353625396e-01 1.5962669566435839e-01 1.8693910005790104e+00 5.4338553919711562e-02 1.3072107029834965e-01 5.0952256873409052e-01 3.6297297962417058e-01 6.9729703689116640e-01 1.8847916529106851e-01 1.3893445315469426e+00 6.3135954963673258e-01 2.5504965559220732e-01 3.0416585330775314e-01 7.6794982514890434e-02 4.6516253891021264e-01 1.0032447338197876e+00 1.0068634818195967e+00 7.0924442726186487e-01 8.6007626361939038e-01 4.5788291057286268e-02 9.8204120057803768e-02 1.3557289795350951e+00 1.3420253851709161e+00 1.1421308963080010e+00 1.0109096700790479e+00 5.5154615942566432e-02 1.1263990116499005e+00 7.6605312533845193e-01 1.1995385101409062e+00 1.4637626796119757e-01 3.8982550719921294e-01 1.5422675362887883e-01 6.8264166713207508e-02 1.3121164046026673e-01 2.3299550435942073e-02 1.0861026784915899e+00 7.2116008136435161e-01 8.2987390874826483e-02 1.0408829172726606e+00 5.8535599433007901e-01 6.5043763937926891e-01 1.7506257676216616e-01 3.4744178109397800e-01 1.2950013072135325e+00 8.0458698342047796e-01 1.0504226785998731e+00 9.7335147357472951e-01 6.1721158652413788e-01 5.8936181690156041e-02 1.7081666379577221e+00 6.7340716203144280e-01 4.0285451921634963e-01 1.2164762245421833e-01 8.3667335728229236e-02 6.1387237886879631e-01 4.9901605225863033e-01 6.5481181343874906e-01 7.5979191867991003e-01 1.4019727366387571e+00 1.4755360743338097e-01 6.0488092140480135e-02 1.0317874042467088e+00 1.0023477567416312e+00 4.0425808237700500e-01 2.8366889118308736e-01 3.1280183792960453e-01 9.8315626470972639e-01 4.6212745363163443e-02 1.2970186874720726e+00 3.5448661504772561e-01 6.5534891641445669e-01 3.4494390986946094e-01 1.0422969151008321e+00 1.2929202376666168e-01 3.6087573133125261e-01 6.8803472718549652e-01 7.4228832371089903e-01 1.2947187564196179e+00 1.0216870041302477e+00 4.0614587223198273e-02 2.7122347612163611e-01 2.6409199762067193e-01 1.3386332343366845e+00 1.2791259514858431e+00 1.5387839152550598e-01 8.4451511494985065e-01 5.2737488567912084e-02 1.2485465478429849e+00 6.4320094324636090e-02 5.4796835557530760e-02 3.9467176280317695e-01 2.3836954905437877e-01 1.0958408101459616e+00 3.4189155866182797e-01 2.9245065257173597e-01 4.8860268068973212e-01 1.8014147382646906e-01 4.2368754680576443e-01 7.2222239058129645e-01 6.3221456953107524e-01 4.9538591425188006e-01 7.6818762462413903e-01 3.6478746725952493e-01 2.2188591106716515e-01 5.2200816935381311e-02 8.4779983955034457e-02 3.2146809603765969e-01 4.4738152450190172e-01 1.3436616223274364e-01 2.1182526881360225e-01 1.0141195883947758e+00 1.3133797623830104e+00 3.9763376420958918e-01 6.3361459797921060e-01 1.0582919475307122e+00 1.0308838497187338e+00 2.9350890742481029e-02 1.8836872665150015e-01 1.0129855105070886e+00 6.6970888712884480e-01 5.0946386836065116e-01 2.3343460649095588e-01 4.5947107439708740e-01 8.1268881193431697e-01 2.9494989138616179e-01 9.3353848892930058e-01 1.0494933092373810e+00 9.9986739497282273e-01 1.4290916812287133e+00 1.4598738204614019e+00 1.0090321993801796e+00 3.8676713210938413e-01 3.8046714677300486e-01 6.8061717374051756e-01 8.9197758882983447e-01 6.7726659019196223e-02 3.1481588663819149e-01 5.3933666655660994e-01 1.1147988820197225e+00 7.6748282466916751e-01 1.2789647016116410e+00 1.9753702470212092e-01 3.8637091016523506e-01 9.1106226177902511e-02 3.0772782334249149e-01 5.5140234062347537e-01 1.1812309121029260e-01 5.4312414327123604e-01 1.8429359887662071e+00 1.1744157730688697e-01 4.7626225006713360e-02 3.7066540071886245e-01 1.1697674454000133e+00 3.5387546079406457e-01 6.5450913446042480e-01 8.1907659511229136e-01 7.4865408853707155e-02 3.5809461970766471e-01 7.6153870115797939e-01 1.0222884642788302e-01 4.1859203849202192e-01 9.1863487763186202e-01 1.5662073560615114e-01 4.4508318552623338e-01 1.0003811554494635e+00 1.0931086370178220e-01 1.1244934114818186e+00 7.1985230230539088e-01 1.1070512529125398e+00 6.0502673740188161e-02 3.6753056291997488e-01 3.9470856911930108e-01 6.5967799511272984e-01 1.3075573453959692e+00 2.6583216160279055e-01 8.7536855802929781e-01 1.3086364909951236e+00 1.7672633257435304e+00 3.5834521378762185e-01 7.8576193289487906e-01 1.4542332346022742e+00 3.2096903242513719e-01 2.2096833406997973e-01 3.2149164915685086e-01 1.5585638440705954e-01 2.2286213813513897e-01 9.7154118807485368e-01 1.2125398676808766e-01 1.2698253751215192e+00 1.2697087751654106e+00 1.0029774687111259e+00 9.1348336182826506e-01 3.7162999535097435e-01 8.3118446917739808e-01 3.5129766892346315e-01 2.8750062101909812e-01 3.9326098668782405e-01 6.4026747602199674e-02 6.7132042270636094e-01 4.0233641507744911e-01 1.4549098753439993e-01 7.9048155323261121e-02 1.1092004969243709e+00 1.8796664311814082e+00 1.3371720682865578e+00 8.6048169238388345e-02 4.5103233147752192e-01 1.4341077089978183e+00 9.4978829716297963e-01 1.5543064454305036e+00 5.0367962885263595e-01 1.3185261882343569e+00 5.1141208720372011e-01 1.7986603882061796e+00 4.2094906216644240e-01 6.3569936337258892e-01 8.6126024817452862e-01 3.2132383168047901e-01 3.7163633072312803e-02 8.1246955241704077e-01 2.3538304144746255e-01 8.7969357837715589e-01 6.6277375665271754e-02 3.1690944528053311e-01 5.9718772553045996e-01 2.0297979514966616e-01 1.3447280016509877e+00 1.3609598376621929e-01 8.7861807486357912e-02 2.0849471262808383e-01 2.9206770147703764e-01 1.3173211781249670e+00 1.8027576364068831e+00 8.0062709142319166e-01 3.6275378015204207e-01 1.2911093156538258e+00 4.8833018552073948e-02 1.3893715609901930e-01 1.3041621349465735e-01 4.6190214314930278e-01 5.4604890721845954e-02 2.0414264683212907e-01 2.4207978013945353e-01 5.1647306504604185e-01 3.2666719785721882e-01 2.2829010276959713e-01 4.9247620144552662e-01 1.2048202995660345e-01 1.7592653582768281e-02 1.4346619113894385e-01 1.6067737658190082e+00 4.6089180004327795e-01 1.5524041219434508e+00 1.0989041852502608e+00 4.2231896346311831e-01 6.3988540099704491e-02 3.7818862339477810e-01 2.7980619087418335e-01 4.8660323762807933e-01 5.4356074106596064e-01 4.8977981668880755e-01 3.8843514632125917e-02 7.9477020220482641e-01 3.2034453312314087e-01 1.4808244793797432e-01 2.5074266337012968e-01 1.9029759581781899e-01 1.1283750068241509e+00 1.4187553325300510e+00 5.2959096881523859e-01 1.0693243027405508e+00 7.6525890131878871e-01 7.4862766454291663e-01 2.4293399452141970e-02 1.8032915909104854e+00 1.6360942815245512e+00 8.5832860654794807e-01 3.3373844003135289e-01 3.4177699233344322e-02 9.8248328920900824e-02 1.5827407931713235e+00 2.9682814944615132e-01 2.7723083985771979e-01 3.1627078744361586e-01 4.1785907462129079e-01 2.1089999992140318e-01 9.9688113392941158e-01 7.1491772041868318e-01 7.7819943726274921e-01 4.2097963057607914e-02 5.8755468969629088e-01 8.0525740887899921e-01 1.2200848561476141e+00 5.0097411837147987e-01 3.1840513771890799e-01 7.5979191345261168e-02 4.8474772148246786e-01 1.6775437453779402e-01 6.7533702567840537e-01 1.2205119441224472e+00 1.1719947982035223e-01 3.1752462566063588e-01 3.0006181200954007e-01 1.0137230569051117e+00 8.9223220179847063e-01 1.5271997213761804e-01 8.7930141700402809e-01 6.3355297797608334e-01 1.5621083604193651e+00 1.0178439925736817e+00 3.1466812152797186e-01 4.9091784067017785e-01 8.7710378163701963e-01 9.4609882968084924e-02 4.9759604160599080e-01 7.6754921755986971e-01 7.6647451912849063e-01 8.2834740275991026e-01 7.0542914664820944e-01 1.0118544122408510e+00 1.3235790678814738e+00 1.9283634670499883e-01 9.4946831190477976e-01 1.6585452085319918e-01 5.9386762419228600e-01 1.2414080291772187e+00 2.4212804873253979e-01 1.8188528600868472e+00 1.4141120767967502e-01 1.0126802623975633e+00 7.8597232537166017e-01 3.2475769570097129e-01 9.7691054575797354e-02 1.2396593731898746e+00 3.5413383757646161e-01 1.1813995562954207e+00 1.8685038487237700e+00 1.8930769644263795e-01 8.2729510001684259e-01 5.2879992599943226e-01 1.1758681920803475e+00 4.6345130808669310e-02 3.9345531940135137e-01 1.4436242464629254e+00 6.0733816187592504e-01 3.0286370218445191e-01 2.4080564240643193e-01 9.7576582158767655e-01 1.0646378919907342e+00 1.3579679293258762e+00 1.0289952029061222e+00 5.6110736678969719e-01 1.5364766881026803e+00 2.6179018839690482e-01 9.3987445989251150e-01 6.0784571967261303e-01 3.6696699062614468e-01 2.4954540650556570e-01 3.0242233171055688e-01 8.8891758580689983e-01 8.7300802187333992e-02 1.0924518437829884e+00 1.2777152407326566e+00 4.1318791418691975e-01 1.4772558404220413e+00 1.8741215311601872e-01 1.3286426899650337e+00 1.8950602005180026e+00 7.4595014274324845e-01 1.2111860984586741e-01 1.2203326334534212e+00 1.9140284599274093e+00 9.2057819413074427e-01 1.6781029750204897e+00 6.0940598698189752e-01 8.1322678056457054e-01 1.1720012323943521e+00 1.8670378606939795e+00 6.9563433292834898e-01 9.2986862347985233e-01 2.6649955199913428e-01 9.9627085106760638e-01 1.1991353113700458e+00 9.6909640466305813e-01 3.2350804271419298e-01 6.7969434657752514e-02 4.5406939586305550e-01 2.3171066796724810e-01 2.8487908202062368e-01 2.8266293246533614e-01 1.9174157510119097e-01 1.4387071423361533e-01 2.3239791742548715e-01 2.0929327157143446e-01 1.9684590281675182e-01 1.3488962229268961e+00 4.2794037005176333e-01 3.8423909871590151e-01 1.4539662519918614e-01 1.1680093235940876e+00 6.8223025138475446e-01 1.02748