<?xml version="1.0"?>
<VTKFile type="UnstructuredGrid"  byte_order="LittleEndian">
<UnstructuredGrid>
<Piece NumberOfPoints="1681" NumberOfCells=" 3364">
<Points>
<DataArray type="Float32" NumberOfComponents="3" format="ascii">
6.812489 0.678479 0.000000 6.744992 0.754008 0.000000 6.768833 0.577399 0.000000 6.702693 0.651409 0.000000 6.888018 0.610982 0.000000 6.629655 0.739834 0.000000 6.686376 0.836620 0.000000 6.717456 0.458444 0.000000 6.842843 0.511259 0.000000 6.619884 0.547908 0.000000 6.563636 0.627182 0.000000 6.970630 0.552365 0.000000 6.575813 0.816444 0.000000 6.637378 0.925275 0.000000 7.059285 0.503368 0.000000 8.303790 1.018859 0.000000 7.152869 0.464604 0.000000 6.571811 0.407102 0.000000 6.656948 0.318348 0.000000 6.828168 0.374084 0.000000 6.941513 0.445526 0.000000 6.486673 0.495856 0.000000 6.446951 0.792928 0.000000 6.406616 0.602866 0.000000 6.527715 0.903472 0.000000 6.598614 1.018859 0.000000 7.049044 0.387965 0.000000 8.398428 1.050499 0.000000 8.265026 0.925275 0.000000 8.360219 0.956908 0.000000 8.331832 1.116194 0.000000 7.140401 0.350124 0.000000 7.250204 0.436562 0.000000 6.450272 0.268493 0.000000 7.350067 0.419595 0.000000 8.216028 0.836620 0.000000 8.157413 0.754008 0.000000 8.455411 0.988541 0.000000 8.776979 1.177061 0.000000 8.493066 1.082140 0.000000 6.585746 0.153490 0.000000 6.761215 0.242445 0.000000 6.991251 0.271612 0.000000 6.865483 0.166543 0.000000 6.300313 0.371624 0.000000 6.270448 0.822889 0.000000 6.362677 0.967925 0.000000 6.326558 0.709876 0.000000 6.166457 0.555310 0.000000 6.489662 0.995338 0.000000 6.570572 1.116194 0.000000 8.428735 1.148743 0.000000 8.311968 0.866543 0.000000 8.407907 0.896467 0.000000 8.348800 1.216057 0.000000 7.104393 0.228339 0.000000 7.235420 0.322749 0.000000 6.344011 0.093442 0.000000 7.356544 0.306186 0.000000 7.451202 0.413915 0.000000 8.260589 0.739834 0.000000 8.089915 0.678479 0.000000 8.206594 0.651409 0.000000 8.556656 1.016284 0.000000 8.503846 0.926391 0.000000 8.690065 1.139347 0.000000 8.719444 1.246392 0.000000 8.871616 1.208702 0.000000 8.751075 1.076958 0.000000 8.816347 1.278941 0.000000 8.836181 1.115073 0.000000 8.593496 1.109225 0.000000 8.525638 1.181293 0.000000 7.931774 0.552365 0.000000 7.552337 0.419595 0.000000 7.843119 0.503368 0.000000 7.749536 0.464604 0.000000 7.652200 0.436562 0.000000 8.014386 0.610982 0.000000 9.139914 1.198304 0.000000 9.250168 1.335264 0.000000 9.076340 1.259835 0.000000 9.312142 1.273238 0.000000 8.945495 1.137631 0.000000 9.344806 1.366904 0.000000 9.431543 1.289314 0.000000 9.237123 1.228641 0.000000 9.155530 1.303623 0.000000 9.559183 1.410445 0.000000 8.620740 1.206188 0.000000 8.979771 1.229713 0.000000 9.462615 1.380323 0.000000 6.566685 -0.098341 0.000000 6.373940 -0.070704 0.000000 6.743130 0.037490 0.000000 7.021670 0.079494 0.000000 6.105085 0.182027 0.000000 6.103971 0.423945 0.000000 6.214337 0.935901 0.000000 6.121247 0.733492 0.000000 6.462134 1.109656 0.000000 6.335750 1.102036 0.000000 5.983952 0.589196 0.000000 6.553605 1.216057 0.000000 8.445268 1.246046 0.000000 8.382814 0.737179 0.000000 8.476468 0.836364 0.000000 8.354479 1.317192 0.000000 7.217536 0.185065 0.000000 7.338867 0.174337 0.000000 6.171644 -0.041698 0.000000 7.455273 0.300641 0.000000 7.554001 0.306185 0.000000 8.312453 0.627183 0.000000 8.140454 0.577399 0.000000 8.599786 0.956314 0.000000 8.653150 1.039506 0.000000 8.575598 0.861624 0.000000 8.638203 1.306024 0.000000 8.727906 1.343819 0.000000 8.913250 1.311491 0.000000 8.791664 1.016162 0.000000 8.822683 1.375760 0.000000 8.887603 1.046085 0.000000 8.538353 1.279938 0.000000 8.049163 0.502863 0.000000 7.968353 0.445526 0.000000 7.651488 0.322749 0.000000 7.859967 0.397597 0.000000 7.768425 0.359678 0.000000 9.175421 1.135856 0.000000 9.041274 1.153737 0.000000 9.203959 1.409139 0.000000 9.300861 1.441689 0.000000 9.102253 1.356179 0.000000 9.010153 1.344040 0.000000 9.271360 1.165780 0.000000 9.367299 1.195704 0.000000 8.983542 1.076009 0.000000 9.397764 1.474238 0.000000 9.526428 1.296526 0.000000 9.457395 1.172216 0.000000 9.567567 1.518875 0.000000 9.607150 1.347960 0.000000 9.628719 1.461826 0.000000 9.487464 1.476172 0.000000 6.547925 1.317192 0.000000 10.042027 1.561055 0.000000 8.949654 0.971702 0.000000 9.692912 1.399770 0.000000 10.101908 1.620029 0.000000 9.945458 1.530933 0.000000 9.820382 1.410660 0.000000 9.723357 1.493467 0.000000 9.848889 1.500811 0.000000 10.196546 1.651670 0.000000 6.757428 -0.229950 0.000000 6.464633 -0.323613 0.000000 6.030322 -0.282844 0.000000 7.003546 -0.124740 0.000000 7.195904 0.018527 0.000000 5.936728 0.350037 0.000000 5.748116 0.266687 0.000000 5.860049 -0.042590 0.000000 6.041718 0.898637 0.000000 6.188110 1.093135 0.000000 5.873737 0.773450 0.000000 6.445479 1.207687 0.000000 6.253441 1.197913 0.000000 5.809410 0.498800 0.000000 8.451600 1.347312 0.000000 8.411437 0.622524 0.000000 8.548243 0.754539 0.000000 8.348800 1.418327 0.000000 7.373857 0.003045 0.000000 7.460197 0.163609 0.000000 7.650627 0.185065 0.000000 8.199930 0.458443 0.000000 8.372916 0.495858 0.000000 8.737846 0.912240 0.000000 8.676980 0.794709 0.000000 8.548722 1.377431 0.000000 8.645844 1.407551 0.000000 8.736815 1.446307 0.000000 8.927607 1.395990 0.000000 8.844611 0.941640 0.000000 8.832399 1.478585 0.000000 8.090586 0.374084 0.000000 7.927502 0.271612 0.000000 7.790923 0.234701 0.000000 9.130398 1.040334 0.000000 9.218557 1.067835 0.000000 9.040026 1.006018 0.000000 9.120543 1.455968 0.000000 9.201790 1.503522 0.000000 9.313478 1.515946 0.000000 9.012237 1.439641 0.000000 9.336480 1.088639 0.000000 9.391343 1.567403 0.000000 9.655117 1.285474 0.000000 9.588801 1.213008 0.000000 9.417384 1.019981 0.000000 9.516109 1.075427 0.000000 9.506414 1.575924 0.000000 9.602882 1.605912 0.000000 9.688474 1.571886 0.000000 6.553605 1.418327 0.000000 6.439904 1.325734 0.000000 10.088420 1.498074 0.000000 10.014802 1.471333 0.000000 9.968978 1.626163 0.000000 8.910995 0.852713 0.000000 9.027564 0.882717 0.000000 9.751057 1.315398 0.000000 10.076085 1.702084 0.000000 10.168875 1.557936 0.000000 9.914552 1.410757 0.000000 9.882279 1.636985 0.000000 9.827635 1.330606 0.000000 9.785377 1.604436 0.000000 10.269891 1.767183 0.000000 10.172988 1.734634 0.000000 10.331733 1.651421 0.000000 10.306431 1.562343 0.000000 6.570572 1.518190 0.000000 6.445478 1.425013 0.000000 8.292643 0.391125 0.000000 10.575097 1.778232 0.000000 10.354188 1.746156 0.000000 10.428302 1.681543 0.000000 10.480459 1.746591 0.000000 7.058336 -0.403414 0.000000 6.757259 -0.525474 0.000000 6.235895 -0.480849 0.000000 6.447352 -0.651181 0.000000 5.865641 -0.563848 0.000000 5.654764 -0.261793 0.000000 7.169741 -0.182894 0.000000 5.447283 0.035399 0.000000 5.526493 0.428059 0.000000 5.815474 0.939972 0.000000 6.016306 1.082777 0.000000 6.167074 1.281137 0.000000 5.677806 0.652571 0.000000 5.581389 0.885343 0.000000 6.314005 1.295047 0.000000 8.444532 1.447944 0.000000 8.530815 0.512467 0.000000 8.608304 0.662097 0.000000 8.331832 1.518190 0.000000 7.473357 -0.202608 0.000000 7.511721 0.010786 0.000000 7.776773 0.069965 0.000000 7.649585 0.018527 0.000000 8.209555 0.282722 0.000000 8.443180 0.343245 0.000000 8.828556 0.768160 0.000000 8.740460 0.688613 0.000000 8.542719 1.483877 0.000000 8.639679 1.516652 0.000000 8.731733 1.536796 0.000000 8.937207 1.497910 0.000000 8.827467 1.566413 0.000000 8.063869 0.166540 0.000000 7.903961 0.121404 0.000000 9.159484 0.958257 0.000000 9.301188 0.966034 0.000000 9.034328 1.528030 0.000000 9.119151 1.575421 0.000000 9.214735 1.607700 0.000000 9.325693 1.618389 0.000000 9.422814 1.648508 0.000000 9.707291 1.223013 0.000000 9.658401 1.119814 0.000000 9.508039 0.943048 0.000000 9.603799 1.004552 0.000000 9.519936 1.678628 0.000000 9.675673 1.663225 0.000000 9.597071 1.736814 0.000000 9.749778 1.671652 0.000000 6.477507 1.508065 0.000000 6.319457 1.432807 0.000000 10.134813 1.435093 0.000000 9.992038 1.382399 0.000000 10.073017 1.352762 0.000000 9.988753 1.725868 0.000000 8.970006 0.756551 0.000000 9.116836 0.780755 0.000000 9.835383 1.245071 0.000000 10.054781 1.790987 0.000000 10.230753 1.465016 0.000000 9.922613 1.295865 0.000000 9.865228 1.727106 0.000000 10.244334 1.854868 0.000000 10.374625 1.845823 0.000000 10.149557 1.822928 0.000000 10.399706 1.553547 0.000000 10.309587 1.480972 0.000000 6.598614 1.615525 0.000000 6.494030 1.605312 0.000000 8.356468 0.223061 0.000000 10.560600 1.864832 0.000000 10.549644 1.684468 0.000000 10.635183 1.730960 0.000000 10.669735 1.809872 0.000000 10.473436 1.618165 0.000000 10.471093 1.875812 0.000000 10.954706 1.768280 0.000000 6.637378 1.709109 0.000000 12.263107 2.253862 0.000000 10.835702 1.896147 0.000000 10.740028 1.747734 0.000000 10.695270 1.683689 0.000000 11.406376 1.969165 0.000000 11.596761 2.032431 0.000000 12.069970 2.193618 0.000000 11.120798 1.874266 0.000000 10.953648 1.904794 0.000000 10.911145 1.832154 0.000000 11.977530 2.158963 0.000000 11.683695 2.073130 0.000000 11.048285 1.936434 0.000000 11.882338 2.127330 0.000000 11.501568 2.000798 0.000000 12.166538 2.223740 0.000000 11.780264 2.103252 0.000000 11.472947 1.926382 0.000000 11.025606 1.842633 0.000000 10.814576 1.802032 0.000000 7.099787 -0.721444 0.000000 7.399177 -0.440296 0.000000 6.668147 -0.829033 0.000000 6.150403 -0.854482 0.000000 5.713137 -0.945843 0.000000 5.424642 -0.694092 0.000000 5.307595 -0.356423 0.000000 5.111717 -0.071731 0.000000 5.242894 0.328163 0.000000 5.360857 0.671480 0.000000 5.800669 1.157770 0.000000 5.995778 1.360856 0.000000 6.172241 1.441910 0.000000 5.562530 1.223905 0.000000 5.325685 0.934817 0.000000 8.429251 1.548266 0.000000 8.606057 0.362092 0.000000 8.677473 0.535590 0.000000 8.303790 1.615525 0.000000 7.648325 -0.182894 0.000000 7.612599 -0.433346 0.000000 7.849727 -0.091955 0.000000 8.265646 0.097180 0.000000 8.525079 0.165360 0.000000 8.896028 0.663038 0.000000 8.816854 0.562959 0.000000 8.526669 1.578342 0.000000 8.624087 1.608418 0.000000 8.721505 1.638494 0.000000 8.923201 1.596030 0.000000 8
[...]
<CellData Scalars="Label">
<DataArray type="Int32" Name="Label" format="ascii">
0 0 0 0 0 0 0 0 0 0 0 0 0 0 0 0 0 0 0 0 0 0 0 0 0 0 0 0 0 0 0 0 0 0 0 0 0 0 0 0 0 0 0 0 0 0 0 0 0 0 0 0 0 0 0 0 0 0 0 0 0 0 0 0 0 0 0 0 0 0 0 0 0 0 0 0 0 0 0 0 0 0 0 0 0 0 0 0 0 0 0 0 0 0 0 0 0 0 0 0 0 0 0 0 0 0 0 0 0 0 0 0 0 0 0 0 0 0 0 0 0 0 0 0 0 0 0 0 0 0 0 0 0 0 0 0 0 0 0 0 0 0 0 0 0 0 0 0 0 0 0 0 0 0 0 0 0 0 0 0 0 0 0 0 0 0 0 0 0 0 0 0 0 0 0 0 0 0 0 0 0 0 0 0 0 0 0 0 0 0 0 0 0 0 0 0 0 0 0 0 0 0 0 0 0 0 0 0 0 0 0 0 0 0 0 0 0 0 0 0 0 0 0 0 0 0 0 0 0 0 0 0 0 0 0 0 0 0 0 0 0 0 0 0 0 0 0 0 0 0 0 0 0 0 0 0 0 0 0 0 0 0 0 0 0 0 0 0 0 0 0 0 0 0 0 0 0 0 0 0 0 0 0 0 0 0 0 0 0 0 0 0 0 0 0 0 0 0 0 0 0 0 0 0 0 0 0 0 0 0 0 0 0 0 0 0 0 0 0 0 0 0 0 0 0 0 0 0 0 0 0 0 0 0 0 0 0 0 0 0 0 0 0 0 0 0 0 0 0 0 0 0 0 0 0 0 0 0 0 0 0 0 0 0 0 0 0 0 0 0 0 0 0 0 0 0 0 0 0 0 0 0 0 0 0 0 0 0 0 0 0 0 0 0 0 0 0 0 0 0 0 0 0 0 0 0 0 0 0 0 0 0 0 0 0 0 0 0 0 0 0 0 0 0 0 0 0 0 0 0 0 0 0 0 0 0 0 0 0 0 0 0 0 0 0 0 0 0 0 0 0 0 0 0 0 0 0 0 0 0 0 0 0 0 0 0 0 0 0 0 0 0 0 0 0 0 0 0 0 0 0 0 0 0 0 0 0 0 0 0 0 0 0 0 0 0 0 0 0 0 0 0 0 0 0 0 0 0 0 0 0 0 0 0 0 0 0 0 0 0 0 0 0 0 0 0 0 0 0 0 0 0 0 0 0 0 0 0 0 0 0 0 0 0 0 0 0 0 0 0 0 0 0 0 0 0 0 0 0 0 0 0 0 0 0 0 0 0 0 0 0 0 0 0 0 0 0 0 0 0 0 0 0 0 0 0 0 0 0 0 0 0 0 0 0 0 0 0 0 0 0 0 0 0 0 0 0 0 0 0 0 0 0 0 0 0 0 0 0 0 0 0 0 0 0 0 0 0 0 0 0 0 0 0 0 0 0 0 0 0 0 0 0 0 0 0 0 0 0 0 0 0 0 0 0 0 0 0 0 0 0 0 0 0 0 0 0 0 0 0 0 0 0 0 0 0 0 0 0 0 0 0 0 0 0 0 0 0 0 0 0 0 0 0 0 0 0 0 0 0 0 0 0 0 0 0 0 0 0 0 0 0 0 0 0 0 0 0 0 0 0 0 0 0 0 0 0 0 0 0 0 0 0 0 0 0 0 0 0 0 0 0 0 0 0 0 0 0 0 0 0 0 0 0 0 0 0 0 0 0 0 0 0 0 0 0 0 0 0 0 0 0 0 0 0 0 0 0 0 0 0 0 0 0 0 0 0 0 0 0 0 0 0 0 0 0 0 0 0 0 0 0 0 0 0 0 0 0 0 0 0 0 0 0 0 0 0 0 0 0 0 0 0 0 0 0 0 0 0 0 0 0 0 0 0 0 0 0 0 0 0 0 0 0 0 0 0 0 0 0 0 0 0 0 0 0 0 0 0 0 0 0 0 0 0 0 0 0 0 0 0 0 0 0 0 0 0 0 0 0 0 0 0 0 0 0 0 0 0 0 0 0 0 0 0 0 0 0 0 0 0 0 0 0 0 0 0 0 0 0 0 0 0 0 0 0 0 0 0 0 0 0 0 0 0 0 0 0 0 0 0 0 0 0 0 0 0 0 0 0 0 0 0 0 0 0 0 0 0 0 0 0 0 0 0 0 0 0 0 0 0 0 0 0 0 0 0 0 0 0 0 0 0 0 0 0 0 0 0 0 0 0 0 0 0 0 0 0 0 0 0 0 0 0 0 0 0 0 0 0 0 0 0 0 0 0 0 0 0 0 0 0 0 0 0 0 0 0 0 0 0 0 0 0 0 0 0 0 0 0 0 0 0 0 0 0 0 0 0 0 0 0 0 0 0 0 0 0 0 0 0 0 0 0 0 0 0 0 0 0 0 0 0 0 0 0 0 0 0 0 0 0 0 0 0 0 0 0 0 0 0 0 0 0 0 0 0 0 0 0 0 0 0 0 0 0 0 0 0 0 0 0 0 0 0 0 0 0 0 0 0 0 0 0 0 0 0 0 0 0 0 0 0 0 0 0 0 0 0 0 0 0 0 0 0 0 0 0 0 0 0 0 0 0 0 0 0 0 0 0 0 0 0 0 0 0 0 0 0 0 0 0 0 0 0 0 0 0 0 0 0 0 0 0 0 0 0 0 0 0 0 0 0 0 0 0 0 0 0 0 0 0 0 0 0 0 0 0 0 0 0 0 0 0 0 0 0 0 0 0 0 0 0 0 0 0 0 0 0 0 0 0 0 0 0 0 0 0 0 0 0 0 0 0 0 0 0 0 0 0 0 0 0 0 0 0 0 0 0 0 0 0 0 0 0 0 0 0 0 0 0 0 0 0 0 0 0 0 0 0 0 0 0 0 0 0 0 0 0 0 0 0 0 0 0 0 0 0 0 0 0 0 0 0 0 0 0 0 0 0 0 0 0 0 0 0 0 0 0 0 0 0 0 0 0 0 0 0 0 0 0 0 0 0 0 0 0 0 0 0 0 0 0 0 0 0 0 0 0 0 0 0 0 0 0 0 0 0 0 0 0 0 0 0 0 0 0 0 0 0 0 0 0 0 0 0 0 0 0 0 0 0 0 0 0 0 0 0 0 0 0 0 0 0 0 0 0 0 0 0 0 0 0 0 0 0 0 0 0 0 0 0 0 0 0 0 0 0 0 0 0 0 0 0 0 0 0 0 0 0 0 0 0 0 0 0 0 0 0 0 0 0 0 0 0 0 0 0 0 0 0 0 0 0 0 0 0 0 0 0 0 0 0 0 0 0 0 0 0 0 0 0 0 0 0 0 0 0 0 0 0 0 0 0 0 0 0 0 0 0 0 0 0 0 0 0 0 0 0 0 0 0 0 0 0 0 0 0 0 0 0 0 0 0 0 0 0 0 0 0 0 0 0 0 0 0 0 0 0 0 0 0 0 0 0 0 0 0 0 0 0 0 0 0 0 0 0 0 0 0 0 0 0 0 0 0 0 0 0 0 0 0 0 0 0 0 0 0 0 0 0 0 0 0 0 0 0 0 0 0 0 0 0 0 0 0 0 0 0 0 0 0 0 0 0 0 0 0 0 0 0 0 0 0 0 0 0 0 0 0 0 0 0 0 0 0 0 0 0 0 0 0 0 0 0 0 0 0 0 0 0 0 0 0 0 0 0 0 0 0 0 0 0 0 0 0 0 0 0 0 0 0 0 0 0 0 0 0 0 0 0 0 0 0 0 0 0 0 0 0 0 0 0 0 0 0 0 0 0 0 0 0 0 0 0 0 0 0 0 0 0 0 0 0 0 0 0 0 0 0 0 0 0 0 0 0 0 0 0 0 0 0 0 0 0 0 0 0 0 0 0 0 0 0 0 0 0 0 0 0 0 0 0 0 0 0 0 0 0 0 0 0 0 0 0 0 0 0 0 0 0 0 0 0 0 0 0 0 0 0 0 0 0 0 0 0 0 0 0 0 0 0 0 0 0 0 0 0 0 0 0 0 0 0 0 0 0 0 0 0 0 0 0 0 0 0 0 0 0 0 0 0 0 0 0 0 0 0 0 0 0 0 0 0 0 0 0 0 0 0 0 0 0 0 0 0 0 0 0 0 0 0 0 0 0 0 0 0 0 0 0 0 0 0 0 0 0 0 0 0 0 0 0 0 0 0 0 0 0 0 0 0 0 0 0 0 0 0 0 0 0 0 0 0 0 0 0 0 0 0 0 0 0 0 0 0 0 0 0 0 0 0 0 0 0 0 0 0 0 0 0 0 0 0 0 0 0 0 0 0 0 0 0 0 0 0 0 0 0 0 0 0 0 0 0 0 0 0 0 0 0 0 0 0 0 0 0 0 0 0 0 0 0 0 0 0 0 0 0 0 0 0 0 0 0 0 0 0 0 0 0 0 0 0 0 0 0 0 0 0 0 0 0 0 0 0 0 0 0 0 0 0 0 0 0 0 0 0 0 0 0 0 0 0 0 0 0 0 0 0 0 0 0 0 0 0 0 0 0 0 0 0 0 0 0 0 0 0 0 0 0 0 0 0 0 0 0 0 0 0 0 0 0 0 0 0 0 0 0 0 0 0 0 0 0 0 0 0 0 0 0 0 0 0 0 0 0 0 0 0 0 0 0 0 0 0 0 0 0 0 0 0 0 0 0 0 0 0 0 0 0 0 0 0 0 0 0 0 0 0 0 0 0 0 0 0 0 0 0 0 0 0 0 0 0 0 0 0 0 0 0 0 0 0 0 0 0 0 0 0 0 0 0 0 0 0 0 0 0 0 0 0 0 0 0 0 0 0 0 0 0 0 0 0 0 0 0 0 0 0 0 0 0 0 0 0 0 0 0 0 0 0 0 0 0 0 0 0 0 0 0 0 0 0 0 0 0 0 0 0 0 0 0 0 0 0 0 0 0 0 0 0 0 0 0 0 0 0 0 0 0 0 0 0 0 0 0 0 0 0 0 0 0 0 0 0 0 0 0 0 0 0 0 0 0 0 0 0 0 0 0 0 0 0 0 0 0 0 0 0 0 0 0 0 0 0 0 0 0 0 0 0 0 0 0 0 0 0 0 0 0 0 0 0 0 0 0 0 0 0 0 0 0 0 0 0 0 0 0 0 0 0 0 0 0 0 0 0 0 0 0 0 0 0 0 0 0 0 0 0 0 0 0 0 0 0 0 0 0 0 0 0 0 0 0 0 0 0 0 0 0 0 0 0 0 0 0 0 0 0 0 0 0 0 0 0 0 0 0 0 0 0 0 0 0 0 0 0 0 0 0 0 0 0 0 0 0 0 0 0 0 0 0 0 0 0 0 0 0 0 0 0 0 0 0 0 0 0 0 0 0 0 0 0 0 0 0 0 0 0 0 0 0 0 0 0 0 0 0 0 0 0 0 0 0 0 0 0 0 0 0 0 0 0 0 0 0 0 0 0 0 0 0 0 0 0 0 0 0 0 0 0 0 0 0 0 0 0 0 0 0 0 0 0 0 0 0 0 0 0 0 0 0 0 0 0 0 0 0 0 0 0 0 0 0 0 0 0 0 0 0 0 0 0 0 0 0 0 0 0 0 0 0 0 0 0 0 0 0 0 0 0 0 0 0 0 0 0 0 0 0 0 0 0 0 0 0 0 0 0 0 0 0 0 0 0 0 0 0 0 0 0 0 0 0 0 0 0 0 0 0 0 0 0 0 0 0 0 0 0 0 0 0 0 0 0 0 0 0 0 0 0 0 0 0 0 0 0 0 0 0 0 0 0 0 0 0 0 0 0 0 0 0 0 0 0 0 0 0 0 0 0 0 0 0 0 0 0 0 0 0 0 0 0 0 0 0 0 0 0 0 0 0 0 0 0 0 0 0 0 0 0 0 0 0 0 0 0 0 0 0 0 0 0 0 0 0 0 0 0 0 0 0 0 0 0 0 0 0 0 0 0 0 0 0 0 0 0 0 0 0 0 0 0 0 0 0 0 0 0 0 0 0 0 0 0 0 0 0 0 0 0 0 0 0 0 0 0 0 0 0 0 0 0 0 0 0 0 0 0 0 0 0 0 0 0 0 0 0 0 0 0 0 0 0 0 0 0 0 0 0 0 0 0 0 0 0 0 0 0 0 0 0 0 0 0 0 0 0 0 0 0 0 0 0 0 0 0 0 0 0 0 0 0 0 0 0 0 0 0 0 0 0 0 0 0 0 0 0 0 0 0 0 0 0 0 0 0 0 0 0 0 0 0 0 0 0 0 0 0 0 0 0 0 0 0 0 0 0 0 0 0 0 0 0 0 0 0 0 0 0 0 0 0 0 0 0 0 0 0 0 0 0 0 0 0 0 0 0 0 0 0 0 0 0 0 0 0 0 0 0 0 0 0 0 0 0 0 0 0 0 0 0 0 0 0 0 0 0 0 0 0 0 0 0 0 0 0 0 0 0 0 0 0 0 0 0 0 0 0 0 0 0 0 0 0 0 0 0 0 0 0 0 0 0 0 0 0 0 0 0 0 0 0 0 0 0 0 0 0 0 0 0 0 0 0 0 0 0 0 0 0 0 0 0 0 0 0 0 0 0 0 0 0 0 0 0 0 0 0 0 0 0 0 0 0 0 0 0 0 0 0 0 0 0 0 0 0 0 0 0 0 0 0 0 0 0 0 0 0 0 0 0 0 0 0 0 0 0 0 0 0 0 0 0 0 0 0 0 0 0 0 0 0 0 0 0 0 0 0 0 0 0 0 0 0 0 0 0 0 0 0 0 0 0 0 0 0 0 0 0 0 0 0 0 0 0 0 0 0 0 0 0 0 0 0 0 0 0 0 0 0 0 0 0 0 0 0 0 0 0 0 0 0 0 0 0 0 0 0 0 0 0 0 0 0 0 0 0 0 0 0 0 0 0 0 0 0 0 0 0 0 0 0 0 0 0 0 0 0 0 0 0 0 0 0 0 0 0 0 0 0 0 0 0 0 0 0 0 0 0 0 0 0 0 0 0 0 0 0 0 0 0 0 0 0 0 0 0 0 0 0 0 0 0 0 0 0 0 0 0 0 0 0 0 0 0 0 0 0 0 0 0 0 0 0 0 0 0 0 0 0 0 0 0 0 0 0 0 0 0 0 0 0 0 0 0 0 4 4 4 4 4 4 4 4 4 4 4 4 4 4 4 4 4 4 4 4 4 4 4 4 4 4 4 4 4 4 4 4 4 4 4 4 4 4 4 4 4 4 4 4 4 4 4 4 4 4 4 4 4 4 4 4 4 4 4 4 4 4 4 4 4 4 4 4 4 4 4 4 4 4 4 4 4 4 4 4 4 4 4 4 4 4 4 4 4 4 4 4 4 4 4 4 4 4 4 4 4 4 4 4 4 4 4 4 4 4 4 4 4 4 4 4 4 4 4 4 4 4 3 3 3 3 3 3 3 3 3 3 3 3 3 3 3 3 3 3 3 3 3 3 3 3 3 3 3 3 3 3 3 3 3 3 3 3 3 3 3 3 3 3 3 3 3 3 3 3 3 3 3 3 3 3 3 3 3 3 3 3 3 3 3 3 3 3 2 2 2 2 2 2 2 2 2 1 1 1 1 1 1 1 1 1 
</DataArray>
<DataArray type="Float64" Name="u" NumberOfComponents="1" format="ascii">
2.4790933278295520e-02 1.6954863405861248e-02 4.5640138517431636e-02 7.7649537848422406e-02 8.5296055861949063e-02 6.1874289815092340e-02 9.3092508000298710e-02 2.5963453892937714e-02 1.6559632090228601e-01 1.4089476256650646e-01 5.1561797533377063e-01 6.6798181859295225e-01 5.1671043249640536e-01 1.4793326122642905e-01 1.1893945336074103e-01 1.4358820920642873e-01 1.2795436465310644e-01 1.3592601623416201e-01 1.2212034875355023e-01 1.0269616595650402e-01 4.8702662977885072e-02 6.9752047779459175e-02 1.1261124821553950e-01 4.8527234642661746e-02 6.6590796648930931e-02 2.8383774233740260e-02 -1.8453002829250638e-03 6.3148518046079287e-03 9.9204117264036981e-03 1.0025211686248689e-02 1.4418043450500918e-02 3.6864428830757509e-02 2.7326704022279276e-02 6.7048516751215094e-03 9.3317674812694491e-03 2.4564822662001690e-03 1.4237171070776414e-01 1.1938846341287318e-01 1.2359271824154044e-01 8.7629584145289506e-03 4.1690802151217329e-02 1.5761093194517545e-02 2.0208383901298851e-02 2.2315350415566138e-02 3.0113405050414356e-02 -3.6310291076310070e-04 2.8280111777452255e-01 2.9836896875926022e-01 3.1489392769580515e-01 3.1868896358344639e-01 3.2700513788597441e-01 3.4830922855849489e-01 3.3716666290394798e-01 2.3362405045065582e-02 -1.2508163342083761e-03 3.8889403476154202e-02 7.9665222586648553e-03 -5.3594180078289405e-04 1.7260284249896868e-02 3.0236645865383521e-02 5.8345031017049262e-03 4.0555295815870473e-02 8.0450795620332458e-02 5.6224318318287711e-02 5.5387761381330988e-02 2.8386847711716734e-02 6.9752748594034783e-02 9.5945214296651052e-02 1.1276058422913862e-01 1.1715581630546967e-01 1.3726102723333278e-01 8.5325051973960842e-02 5.5664902241844241e-02 6.1799703930417775e-02 6.1730435312693961e-03 5.7801180879116933e-02 3.7417069522873957e-02 1.8090719163629660e-02 2.6738616321015735e-02 4.4365352240048041e-02 1.7913523101274177e-02 3.4569712777858586e-03 1.7374598712871786e-01 1.7499800354452610e-01 9.6570992593901006e-02 1.5455404786209154e-01 1.2508432793734159e-01 1.0848439304020913e-01 1.2683454834536656e-01 1.1481919878667438e-01 6.6458200806744722e-02 5.5683301786040487e-02 4.4548995746278602e-02 7.4802174151971379e-02 9.3919791534093147e-02 8.2700658047380970e-02 9.9179758530696965e-02 8.9807350140029191e-02 1.1129559341733472e-01 1.0834450757981659e-01 1.4866704407264536e-01 1.3381286802500419e-01 5.4225493832719823e-02 2.1806112167819108e-03 1.7403548207908633e-02 2.5303509228460754e-03 1.1617290221354626e-01 6.9591434539852018e-02 9.3816769865210606e-02 3.7133057903052841e-01 3.0511516306191283e-01 2.4319501894593223e-01 2.2138320691202418e-01 2.0276901114310239e-01 2.4473677877458211e-01 3.6125356209226978e-01 6.1017329296265177e-01 5.6799246986196028e-01 7.1609823513139248e-01 4.0921281891388439e-02 2.3248385873178468e-01 2.9337708277381269e-01 3.1343583326818097e-01 2.3871019185182474e-01 2.8530224880676941e-02 4.1747204654355580e-02 -1.5462269906159271e-03 -2.5951380392861528e-03 3.3905496544572467e-01 2.9153685850053745e-01 2.9863333503666656e-01 3.0590792741791240e-01 3.1482344833242659e-01 3.3726542603220577e-01 2.9282688857908390e-01 3.9359444427046886e-01 2.8313660061861279e-01 3.0189700843291478e-01 2.8415535227204775e-01 2.7290772829887983e-01 3.0392385078288553e-01 3.2217951804393463e-01 2.7945741064830726e-01 2.7105048716281732e-01 2.3199232669455436e-01 2.4766337180577341e-01 2.4971344970034548e-01 2.5071702256604633e-01 2.6114876723328273e-01 2.7258530919512741e-01 2.6283269858248359e-01 2.2972396213705820e-01 2.1716621453131829e-01 2.2118006611785912e-01 2.8344586235663416e-01 2.7419089171591710e-01 2.7570357366277054e-01 2.5199801401535715e-01 2.0481899968255865e-01 2.5532495204545103e-01 2.8141293390791022e-01 2.4333117743412608e-01 2.5180707706929784e-01 2.4423894536575386e-01 2.7336985149082338e-01 3.4214873347069596e-01 3.0510738371016000e-01 3.0418431565560367e-01 2.9566058060784128e-01 2.8253724196038538e-01 3.1126387940903444e-01 2.9079367255022004e-01 2.9792188890564952e-01 3.0598004520885919e-01 3.0445452266820955e-01 3.1544893725589740e-01 3.1662490090780587e-01 2.8866968985715780e-01 2.9316737315712271e-01 2.7142136151735641e-01 2.6978095920736223e-01 2.7783821680952825e-01 2.9117457978149841e-01 3.0235279957743177e-01 2.9943843801706516e-01 3.0400267424294247e-01 3.0425211192659374e-01 3.1866447698970557e-01 3.2508889440762168e-01 3.3828022006292302e-01 3.1477855971771607e-01 2.7583988568426110e-01 2.9859288238976112e-01 2.6577576693731847e-01 2.6733332579331587e-01 2.8834664284444356e-01 2.9013789208302332e-01 3.0514566420953870e-01 3.0621724580998022e-01 2.5065637581182387e-01 2.3536954776992666e-01 2.5404982403500542e-01 2.7986073746114770e-01 2.8490681210444763e-01 2.8117203861177492e-01 2.8901397564370340e-01 2.6011207812445269e-01 2.5723123615914323e-01 2.4064065284192646e-01 6.5867803801394531e-01 8.0730488625555274e-01 7.1436595815335846e-01 7.8066230845352957e-01 4.9108536926846852e-01 1.4080609651209364e-01 2.7560799907837549e-02 1.2569307402410240e-01 9.1669873354950054e-02 1.5551257823573211e-01 1.3091218510154473e-01 8.0514535659478595e-02 7.3461602513980068e-02 1.4471315656686745e-01 1.3673910917648585e-01 1.1504634646134251e-01 6.8103608185028724e-02 1.6138457719789795e-01 1.4288692824021926e-01 1.5005676260913486e-01 1.0620351292066380e-01 1.6088027188247661e-01 5.2764086116423491e-02 1.0375179966972528e-01 2.2783623094369966e-02 9.3688644707728540e-03 4.3729572410136718e-02 6.8653814625588977e-02 5.5522912497353527e-02 7.8701805793040300e-02 3.4799484611000145e-02 2.3521489032046744e-01 2.1951807276756591e-01 2.2057951692715383e-01 2.1082804299801983e-01 2.0243805751065680e-01 1.9805866393037222e-01 1.6298664305706706e-01 1.7315447071586482e-01 2.1912383673067121e-01 2.0191079600481932e-01 2.2661996399379758e-01 2.9527425911816652e-01 2.9186027031809586e-01 2.9443486724051887e-01 2.9696549766482633e-01 2.5803034009947323e-01 2.9663598400546598e-01 2.6716392004486944e-01 2.7644579660484125e-01 2.5769261996727738e-01 2.7051146608979193e-01 2.8357256590503072e-01 2.7239502261331122e-01 1.4074382822831852e-01 9.8715315480326055e-02 1.5591892040443883e-01 2.5071856555270716e-01 2.3170152205039019e-01 2.4783969351969087e-01 2.2371272961104510e-01 3.0302431587908085e-01 3.0217304062419514e-01 3.0081934492900220e-01 2.9977644152076782e-01 3.0478062784891136e-01 2.7742050065620799e-01 2.3754778850605585e-01 2.8846872508533095e-01 2.9272599961637447e-01 2.9346887359353213e-01 3.0101927414727975e-01 2.9904323954142864e-01 3.0005196303616494e-01 3.0223000951801304e-01 3.0206975952815485e-01 3.0081849258157334e-01 3.0012779908950665e-01 3.0292689040288756e-01 2.9558156626723581e-01 3.0111058617092112e-01 3.0125095978105498e-01 2.9687101473892641e-01 2.9998371248703515e-01 2.9824369292552844e-01 4.4358480317534360e-01 3.6473340949730165e-01 3.8454401907724767e-01 3.1408191886081860e-01 3.8109037741868329e-01 4.0841757820184243e-01 3.4980282555033670e-01 3.4058365721498762e-01 3.3840714662617921e-01 2.8170426343675747e-01 3.0067723290689519e-01 2.9079677117866243e-01 1.4031757923162988e-01 1.7095503235233905e-01 1.8351135089299747e-01 1.7754764052289490e-01 2.1997178845039220e-01 2.0344133590982907e-01 2.0205463199922843e-01 1.7742135425430144e-01 1.9102892275575001e-01 2.1798924302173939e-01 2.3530690282788469e-01 2.5852007494589346e-01 2.3066192729580071e-01 3.0103076855502486e-01 3.0247987100989027e-01 3.0151278984714563e-01 3.0579384763110629e-01 3.1361133710592248e-01 3.0627893192830702e-01 3.1096761681040208e-01 3.0201819338820057e-01 2.9252217839162820e-01 2.8476324490018412e-01 3.2655013973685709e-01 3.1740002323413707e-01 3.2369527096393286e-01 2.8810809186966235e-01 3.0195251840170872e-01 2.8652218403251029e-01 2.8173392187684498e-01 3.0607554413978111e-01 2.8660568756117610e-01 2.9577554948342710e-01 2.7532931120191340e-01 2.8711432421887961e-01 2.7797246103895024e-01 2.6202491224365326e-01 3.5363712639729150e-01 3.4079454070388554e-01 3.3466819494886546e-01 3.5209519374135678e-01 3.3225024091048105e-01 3.3633341981098985e-01 3.2147908356850924e-01 3.1858789652227060e-01 3.4796217569519550e-01 3.6107614574557356e-01 3.5421587989718872e-01 3.4406252726993247e-01 3.3227826642345082e-01 3.3176056405368337e-01 3.2178552316282144e-01 3.2753843492365792e-01 3.6356805496262234e-01 3.7660523880599400e-01 3.4818714558751102e-01 3.3152940594694402e-01 3.4683545110420266e-01 3.2888890054264808e-01 3.3617423402254676e-01 3.2035536364747641e-01 2.9827202289574833e-01 3.1226249410147355e-01 3.0510376015344737e-01 2.9849789848738373e-01 3.1353311389005278e-01 2.7862333751464324e-01 3.4380995482549925e-01 3.4035431639194835e-01 3.3066227768893031e-01 3.2292959148300932e-01 3.4565609690942667e-01 4.0534734899148422e-01 3.6310532438381637e-01 3.9754579611556323e-01 -1.3201711113364838e-03 1.8171388601895117e-01 1.5587684466779084e-01 2.2026267079175366e-01 1.2429790499622695e-01 8.0442677603486862e-02 7.5471200053594520e-02 9.2934397914046174e-02 8.4321605886813811e-02 9.4897758304004654e-02 1.5952032581629061e-01 2.5897623506406842e-01 2.7690487162311406e-01 2.7275793127925685e-01 2.8463244602851501e-01 2.6566109534714200e-01 2.4630991048930198e-01 2.6958124772319814e-01 2.5351437649695696e-01 2.4476718003689368e-01 1.9079286814145743e-01 2.4887216291373626e-01 2.2953505725738743e-01 2.3620055895491854e-01 1.9605977454149370e-01 1.1704999700562199e-01 1.1917545389309797e-01 9.9268573646582564e-02 5.8130919001317366e-02 3.4174587575237436e-01 2.9406444593341741e-01 3.0528073433798275e-01 2.6746778375177904e-01 2.0208268157316772e-01 4.0329901298976867e-01 4.7549273805617809e-01 5.1508903366974468e-01 3.7041342236342290e-01 3.1261480093606175e-01 2.8541011383902160e-01 4.0013391852273739e-01 2.9869636946709599e-01 5.9263654369811097e-02 1.5885407006750540e-01 9.4927550415040404e-02 7.3897664354522483e-02 1.1469597569063766e-01 1.3052927713559387e-01 2.0181141051349816e-01 1.8253622801013514e-01 1.8117678240093260e-01 1.4768515249797848e-01 3.3326503774022054e-01 3.7896478554483093e-01 2.0713562018664428e-01 2.1061221498127031e-01 2.2195275579649237e-01 2.1362377300898583e-01 1.9145615303844021e-01 1.7674668555621242e-01 1.3260338628151080e-01 1.7734296470531291e-01 1.5633652816947535e-01 2.1637787437720366e-01 1.9370062870643645e-01 1.8196351291058793e-01 1.5190968422788881e-01 1.2360223341779120e-01 1.5905876628435930e-01 3.7937703459556844e-03 1.0794307019005611e-01 1.3401923002797458e-01 3.9583803538615786e-01 3.4543136079880382e-01 3.1685982829921921e-01 2.6348430695161024e-01 2.4899526701418095e-01 2.4472065501987686e-01 2.3550977135631668e-01 2.5879895722850443e-01 2.8976757797897634e-01 2.8729128464849985e-01 2.8197313368892968e-01 2.9271735495306717e-01 3.2003929684494159e-01 2.8909314704470401e-01 2.1048232239387918e-01 1.0181191934508968e-01 6.9195394534583302e-02 1.0907206256147564e-01 4.8105451111194568e-02 7.1540508576537223e-02 6.1272848424337910e-02 4.9142809157014161e-02 -1.4245469658386398e-03 -2.5995262217378688e-05 6.1420950133393756e-02 8.4857013390879843e-04 1.9097649583101654e-03 -1.7674136649856343e-03 1.8054269303648233e-02 2.0819599012645562e-01 3.3048494146784506e-02 1.7058136620556916e-02 -4.3884898815077283e-04 5.0537698695397301e-02 3.5118235030187329e-02 4.4311650504442104e-03 4.7750066806614162e-03 6.6868021727072282e-03 1.9547381716328471e-02 1.5747237777178669e-01 6.6444229621019299e-03 1.5205072941499417e-02 1.2862115077071285e-03 1.8770724492937274e-01 2.3705402276041984e-01 1.0642419123450020e-01 5.9330024286746476e-02 8.6812522674905440e-02 1.4004184968633083e-02 1.7322993309179198e-02 1.9760296119463429e-02 3.0982624786246304e-02 1.8058880078218439e-01 1.9888591325749511e-01 4.5154055756114989e-02 3.5004691137418983e-02 3.7310578754440285e-02 5.1340969002635649e-02 5.2862066477678049e-02 9.5277349803850206e-02 4.9945149731428121e-02 5.3678005962905409e-02 2.1197341324924060e-01 1.9519015730785530e-01 8.0634600001714615e-02 4.8743709753929811e-02 2.6071938558163282e-01 5.1525296404439452e-02 4.7209892971031141e-02 8.0812197818787332e-02 3.8466997774867180e-02 1.9771702631103345e-02 2.6861285737609302e-02 9.3656438133005060e-02 1.8559868326516354e-01 2.0296266519827771e-01 5.2291094292199192e-02 1.7492541343168626e-02 5.0484341110673805e-02 3.8214203229630442e-02 1.1199601291609899e-02 9.3054812139839235e-03 7.0511325538617373e-02 3.7535060685950195e-02 1.3836077378070749e-01 1.5035650551046012e-02 2.9876528550276350e-03 1.5073481143474604e-01 5.9799589945858048e-03 1.8946908326335915e-02 2.1551755523721025e-03 8.8046360968317347e-03 9.5668244283711522e-04 1.9792762371977666e-02 9.2716139258444604e-06 1.7331728369445989e-02 3.3888701078334223e-03 2.9946723305990158e-02 6.1407098595796517e-03 3.1113515179798851e-02 2.5313501794748148e-02 5.8360644276297613e-02 7.0223654190446141e-02 1.3101051412497966e-01 1.2463954690626841e-01 1.5555590110633671e-01 1.5641498356863293e-01 -1.1052025251654300e-04 8.4224464043351072e-03 1.1625942814739445e-03 1.2786469305258079e-03 8.7096452962016251e-05 6.3605341440724503e-03 4.2427290651815153e-03 6.3021849735199684e-03 8.6896049288985255e-02 1.185