<?xml version="1.0"?>
<VTKFile type="UnstructuredGrid"  byte_order="LittleEndian">
<UnstructuredGrid>
<Piece NumberOfPoints="1049" NumberOfCells=" 2100">
<Points>
<DataArray type="Float32" NumberOfComponents="3" format="ascii">
4.693603 2.476174 0.000000 18.980934 -0.503164 0.000000 0.372492 -2.894917 0.000000 30.849024 -2.894917 0.000000 0.372492 4.844026 0.000000 30.849024 4.844026 0.000000 4.690746 2.533409 0.000000 4.682205 2.590075 0.000000 4.668065 2.645609 0.000000 4.648465 2.699459 0.000000 4.623600 2.751089 0.000000 4.593719 2.799988 0.000000 4.559118 2.845668 0.000000 4.520140 2.887676 0.000000 4.477173 2.925595 0.000000 4.430644 2.959047 0.000000 4.381016 2.987700 0.000000 4.328781 3.011269 0.000000 4.274459 3.029520 0.000000 4.218590 3.042272 0.000000 4.161729 3.049397 0.000000 4.104441 3.050826 0.000000 4.047296 3.046544 0.000000 3.990860 3.036593 0.000000 3.935696 3.021072 0.000000 3.882352 3.000136 0.000000 3.831357 2.973992 0.000000 3.783218 2.942901 0.000000 3.738415 2.907171 0.000000 3.697392 2.867158 0.000000 3.660556 2.823260 0.000000 3.628274 2.775911 0.000000 3.600868 2.725584 0.000000 3.578608 2.672778 0.000000 3.561717 2.618018 0.000000 3.550362 2.561848 0.000000 3.544656 2.504827 0.000000 3.544656 2.447521 0.000000 3.550362 2.390500 0.000000 3.561717 2.334331 0.000000 3.578608 2.279571 0.000000 3.600868 2.226765 0.000000 3.628274 2.176438 0.000000 3.660556 2.129089 0.000000 3.697392 2.085190 0.000000 3.738415 2.045177 0.000000 3.783218 2.009448 0.000000 3.831357 1.978357 0.000000 3.882352 1.952213 0.000000 3.935696 1.931277 0.000000 3.990860 1.915756 0.000000 4.047296 1.905805 0.000000 4.104441 1.901523 0.000000 4.161729 1.902951 0.000000 4.218590 1.910077 0.000000 4.274459 1.922829 0.000000 4.328781 1.941080 0.000000 4.381016 1.964649 0.000000 4.430644 1.993302 0.000000 4.477173 2.026754 0.000000 4.520140 2.064672 0.000000 4.559118 2.106681 0.000000 4.593719 2.152361 0.000000 4.623600 2.201259 0.000000 4.648465 2.252890 0.000000 4.668065 2.306740 0.000000 4.682205 2.362274 0.000000 4.690746 2.418940 0.000000 18.973658 -0.357375 0.000000 18.951902 -0.213035 0.000000 18.915882 -0.071578 0.000000 18.865957 0.065590 0.000000 18.802624 0.197104 0.000000 18.726509 0.321660 0.000000 18.638372 0.438018 0.000000 18.539087 0.545022 0.000000 18.429640 0.641608 0.000000 18.311121 0.726818 0.000000 18.184708 0.799803 0.000000 18.051655 0.859839 0.000000 17.913284 0.906328 0.000000 17.770975 0.938810 0.000000 17.626137 0.956960 0.000000 17.480211 0.960599 0.000000 17.334648 0.949691 0.000000 17.190897 0.924344 0.000000 17.050381 0.884809 0.000000 16.914501 0.831480 0.000000 16.784607 0.764886 0.000000 16.661987 0.685691 0.000000 16.547863 0.594680 0.000000 16.443367 0.492758 0.000000 16.349539 0.380938 0.000000 16.267311 0.260331 0.000000 16.197500 0.132137 0.000000 16.140800 -0.002372 0.000000 16.097775 -0.141857 0.000000 16.068851 -0.284933 0.000000 16.054317 -0.430179 0.000000 16.054317 -0.576149 0.000000 16.068851 -0.721394 0.000000 16.097775 -0.864470 0.000000 16.140800 -1.003956 0.000000 16.197500 -1.138464 0.000000 16.267311 -1.266659 0.000000 16.349539 -1.387265 0.000000 16.443367 -1.499085 0.000000 16.547863 -1.601007 0.000000 16.661987 -1.692018 0.000000 16.784607 -1.771214 0.000000 16.914501 -1.837807 0.000000 17.050381 -1.891136 0.000000 17.190897 -1.930671 0.000000 17.334648 -1.956019 0.000000 17.480211 -1.966927 0.000000 17.626137 -1.963288 0.000000 17.770975 -1.945137 0.000000 17.913284 -1.912656 0.000000 18.051655 -1.866166 0.000000 18.184708 -1.806130 0.000000 18.311121 -1.733145 0.000000 18.429640 -1.647936 0.000000 18.539087 -1.551349 0.000000 18.638372 -1.444345 0.000000 18.726509 -1.327987 0.000000 18.802624 -1.203432 0.000000 18.865957 -1.071917 0.000000 18.915882 -0.934750 0.000000 18.951902 -0.793293 0.000000 18.973658 -0.648953 0.000000 1.355606 -2.894917 0.000000 2.338720 -2.894917 0.000000 3.321834 -2.894917 0.000000 4.304948 -2.894917 0.000000 5.288062 -2.894917 0.000000 6.271176 -2.894917 0.000000 7.254290 -2.894917 0.000000 8.237404 -2.894917 0.000000 9.220517 -2.894917 0.000000 10.203631 -2.894917 0.000000 11.186746 -2.894917 0.000000 12.169859 -2.894917 0.000000 13.152973 -2.894917 0.000000 14.136087 -2.894917 0.000000 15.119201 -2.894917 0.000000 16.102316 -2.894917 0.000000 17.085428 -2.894917 0.000000 18.068542 -2.894917 0.000000 19.051657 -2.894917 0.000000 20.034771 -2.894917 0.000000 21.017885 -2.894917 0.000000 22.000999 -2.894917 0.000000 22.984112 -2.894917 0.000000 23.967226 -2.894917 0.000000 24.950340 -2.894917 0.000000 25.933455 -2.894917 0.000000 26.916569 -2.894917 0.000000 27.899683 -2.894917 0.000000 28.882797 -2.894917 0.000000 29.865910 -2.894917 0.000000 0.372492 3.876658 0.000000 0.372492 2.909290 0.000000 0.372492 1.941923 0.000000 0.372492 0.974555 0.000000 0.372492 0.007187 0.000000 0.372492 -0.960181 0.000000 0.372492 -1.927549 0.000000 30.849024 -1.927549 0.000000 30.849024 -0.960181 0.000000 30.849024 0.007187 0.000000 30.849024 0.974555 0.000000 30.849024 1.941923 0.000000 30.849024 2.909290 0.000000 30.849024 3.876658 0.000000 29.865910 4.844026 0.000000 28.882797 4.844026 0.000000 27.899683 4.844026 0.000000 26.916569 4.844026 0.000000 25.933455 4.844026 0.000000 24.950340 4.844026 0.000000 23.967226 4.844026 0.000000 22.984112 4.844026 0.000000 22.000999 4.844026 0.000000 21.017885 4.844026 0.000000 20.034771 4.844026 0.000000 19.051657 4.844026 0.000000 18.068542 4.844026 0.000000 17.085428 4.844026 0.000000 16.102316 4.844026 0.000000 15.119201 4.844026 0.000000 14.136087 4.844026 0.000000 13.152973 4.844026 0.000000 12.169859 4.844026 0.000000 11.186746 4.844026 0.000000 10.203631 4.844026 0.000000 9.220517 4.844026 0.000000 8.237404 4.844026 0.000000 7.254290 4.844026 0.000000 6.271176 4.844026 0.000000 5.288062 4.844026 0.000000 4.304948 4.844026 0.000000 3.321834 4.844026 0.000000 2.338720 4.844026 0.000000 1.355606 4.844026 0.000000 22.508947 4.027831 0.000000 12.595740 4.039567 0.000000 7.678380 -2.058093 0.000000 7.753927 4.028101 0.000000 26.530642 4.056185 0.000000 10.736003 -1.990109 0.000000 24.430042 -1.943923 0.000000 14.688552 4.027866 0.000000 4.739219 -2.149450 0.000000 21.522648 -2.156915 0.000000 19.056396 -0.895215 0.000000 27.440760 -2.113162 0.000000 18.948185 -1.192524 0.000000 13.543467 -2.086029 0.000000 15.959405 -0.817981 0.000000 16.043724 -1.135729 0.000000 18.783426 -1.444669 0.000000 16.213354 -1.391074 0.000000 16.403584 -1.664943 0.000000 19.607594 3.938940 0.000000 18.571156 -1.719613 0.000000 16.623154 -1.859879 0.000000 18.278288 -1.903249 0.000000 17.007729 -1.996466 0.000000 1.134967 0.351365 0.000000 30.026655 1.458239 0.000000 16.617661 4.001020 0.000000 17.714273 1.073318 0.000000 17.087425 1.032390 0.000000 17.397984 1.081206 0.000000 18.022268 1.001067 0.000000 9.642758 3.841929 0.000000 24.403996 3.988185 0.000000 1.118462 2.370543 0.000000 2.784925 -1.980743 0.000000 30.054472 -0.422228 0.000000 28.391239 3.992624 0.000000 5.740997 4.071671 0.000000 2.727934 4.131802 0.000000 3.715108 4.016510 0.000000 3.774758 2.999309 0.000000 4.002314 3.115007 0.000000 4.510151 4.062477 0.000000 4.375310 3.044721 0.000000 4.194174 3.101365 0.000000 1.210019 -1.360000 0.000000 17.556326 -2.091482 0.000000 30.011259 3.392974 0.000000 29.367033 -2.084568 0.000000 19.442965 -2.246218 0.000000 15.679802 -2.257475 0.000000 14.703860 -2.224164 0.000000 15.144423 -1.561485 0.000000 20.475689 -2.284400 0.000000 20.007318 -1.534670 0.000000 18.022732 -2.009242 0.000000 6.475623 4.044630 0.000000 7.263924 3.399578 0.000000 6.283342 3.420769 0.000000 5.619881 3.371010 0.000000 4.532355 2.936339 0.000000 4.619190 2.854174 0.000000 4.670663 2.749381 0.000000 1.151247 1.604548 0.000000 1.919401 1.010079 0.000000 1.805259 1.955946 0.000000 1.846219 2.550249 0.000000 2.298764 2.337170 0.000000 3.544007 2.718458 0.000000 3.498127 2.538279 0.000000 3.492473 2.418199 0.000000 2.448274 2.738335 0.000000 1.997649 3.310123 0.000000 2.763927 2.518116 0.000000 2.719150 2.087277 0.000000 3.568450 2.173590 0.000000 3.517120 2.289566 0.000000 2.807088 3.036542 0.000000 3.621899 2.871399 0.000000 3.102319 2.710551 0.000000 2.264521 1.692721 0.000000 17.240164 -2.094952 0.000000 1.984859 4.072123 0.000000 15.460939 3.998401 0.000000 15.065976 3.324132 0.000000 15.999835 0.110396 0.000000 16.298964 0.522244 0.000000 16.654516 0.837103 0.000000 15.959405 -0.188347 0.000000 15.927903 -0.503164 0.000000 14.364415 3.289526 0.000000 14.747921 2.701913 0.000000 14.084442 2.655781 0.000000 14.444918 2.133680 0.000000 13.801125 2.087152 0.000000 14.150741 1.566068 0.000000 13.513515 1.510577 0.000000 15.409076 2.712748 0.000000 13.927278 0.943739 0.000000 13.191283 0.891634 0.000000 12.804630 1.499092 0.000000 14.805326 1.612834 0.000000 12.446332 0.825681 0.000000 12.034537 1.517861 0.000000 11.652565 0.762287 0.000000 11.193213 1.466611 0.000000 10.807072 0.697075 0.000000 10.333080 1.418649 0.000000 9.943883 0.648002 0.000000 9.474886 1.313196 0.000000 9.085449 0.597105 0.000000 12.129908 0.093847 0.000000 8.634500 1.236274 0.000000 8.256503 0.558348 0.000000 7.818544 1.234959 0.000000 7.494525 0.539912 0.000000 7.065935 1.120293 0.000000 6.788215 0.529227 0.000000 6.379557 1.075171 0.000000 6.153179 0.509792 0.000000 5.821971 0.941393 0.000000 5.628823 0.516410 0.000000 5.326495 0.917255 0.000000 5.163920 0.513566 0.000000 5.525025 1.284535 0.000000 4.730063 2.389845 0.000000 4.682629 2.203577 0.000000 4.532895 2.006915 0.000000 4.617308 2.098614 0.000000 4.746996 2.512344 0.000000 4.723228 2.630088 0.000000 4.921260 0.857988 0.000000 4.375682 1.906801 0.000000 4.749511 0.487265 0.000000 4.534888 0.804869 0.000000 3.834213 1.921122 0.000000 4.011814 1.856530 0.000000 4.189801 1.844225 0.000000 3.725087 1.980243 0.000000 4.360304 0.451497 0.000000 4.145866 0.829463 0.000000 3.966538 0.398765 0.000000 3.715456 0.826569 0.000000 3.502652 0.367718 0.000000 5.856915 0.049151 0.000000 3.795613 -0.060081 0.000000 4.673084 1.175826 0.000000 3.252
[...]
<CellData Scalars="Label">
<DataArray type="Int32" Name="Label" format="ascii">
1 1 1 1 1 1 1 1 1 1 1 1 1 1 1 1 1 1 1 1 1 1 1 1 1 1 1 1 1 1 1 1 1 1 1 1 1 1 1 1 1 1 1 1 1 1 1 1 1 1 1 1 1 1 1 1 1 1 1 1 1 1 1 1 1 1 1 1 1 1 1 1 1 1 1 1 1 1 1 1 1 1 1 1 1 1 1 1 1 1 1 1 1 1 1 1 1 1 1 1 1 1 1 1 1 1 1 1 1 1 1 1 1 1 1 1 1 1 1 1 1 1 1 1 1 1 1 1 1 1 1 1 1 1 1 1 1 1 1 1 1 1 1 1 1 1 1 1 1 1 1 1 1 1 1 1 1 1 1 1 1 1 1 1 1 1 1 1 1 1 1 1 1 1 1 1 1 1 1 1 1 1 1 1 1 1 1 1 1 1 1 1 1 1 1 1 1 1 1 1 1 1 1 1 1 1 1 1 1 1 1 1 1 1 1 1 1 1 1 1 1 1 1 1 1 1 1 1 1 1 1 1 1 1 1 1 1 1 1 1 1 1 1 1 1 1 1 1 1 1 1 1 1 1 1 1 1 1 1 1 1 1 1 1 1 1 1 1 1 1 1 1 1 1 1 1 1 1 1 1 1 1 1 1 1 1 1 1 1 1 1 1 1 1 1 1 1 1 1 1 1 1 1 1 1 1 1 1 1 1 1 1 1 1 1 1 1 1 1 1 1 1 1 1 1 1 1 1 1 1 1 1 1 1 1 1 1 1 1 1 1 1 1 1 1 1 1 1 1 1 1 1 1 1 1 1 1 1 1 1 1 1 1 1 1 1 1 1 1 1 1 1 1 1 1 1 1 1 1 1 1 1 1 1 1 1 1 1 1 1 1 1 1 1 1 1 1 1 1 1 1 1 1 1 1 1 1 1 1 1 1 1 1 1 1 1 1 1 1 1 1 1 1 1 1 1 1 1 1 1 1 1 1 1 1 1 1 1 1 1 1 1 1 1 1 1 1 1 1 1 1 1 1 1 1 1 1 1 1 1 1 1 1 1 1 1 1 1 1 1 1 1 1 1 1 1 1 1 1 1 1 1 1 1 1 1 1 1 1 1 1 1 1 1 1 1 1 1 1 1 1 1 1 1 1 1 1 1 1 1 1 1 1 1 1 1 1 1 1 1 1 1 1 1 1 1 1 1 1 1 1 1 1 1 1 1 1 1 1 1 1 1 1 1 1 1 1 1 1 1 1 1 1 1 1 1 1 1 1 1 1 1 1 1 1 1 1 1 1 1 1 1 1 1 1 1 1 1 1 1 1 1 1 1 1 1 1 1 1 1 1 1 1 1 1 1 1 1 1 1 1 1 1 1 1 1 1 1 1 1 1 1 1 1 1 1 1 1 1 1 1 1 1 1 1 1 1 1 1 1 1 1 1 1 1 1 1 1 1 1 1 1 1 1 1 1 1 1 1 1 1 1 1 1 1 1 1 1 1 1 1 1 1 1 1 1 1 1 1 1 1 1 1 1 1 1 1 1 1 1 1 1 1 1 1 1 1 1 1 1 1 1 1 1 1 1 1 1 1 1 1 1 1 1 1 1 1 1 1 1 1 1 1 1 1 1 1 1 1 1 1 1 1 1 1 1 1 1 1 1 1 1 1 1 1 1 1 1 1 1 1 1 1 1 1 1 1 1 1 1 1 1 1 1 1 1 1 1 1 1 1 1 1 1 1 1 1 1 1 1 1 1 1 1 1 1 1 1 1 1 1 1 1 1 1 1 1 1 1 1 1 1 1 1 1 1 1 1 1 1 1 1 1 1 1 1 1 1 1 1 1 1 1 1 1 1 1 1 1 1 1 1 1 1 1 1 1 1 1 1 1 1 1 1 1 1 1 1 1 1 1 1 1 1 1 1 1 1 1 1 1 1 1 1 1 1 1 1 1 1 1 1 1 1 1 1 1 1 1 1 1 1 1 1 1 1 1 1 1 1 1 1 1 1 1 1 1 1 1 1 1 1 1 1 1 1 1 1 1 1 1 1 1 1 1 1 1 1 1 1 1 1 1 1 1 1 1 1 1 1 1 1 1 1 1 1 1 1 1 1 1 1 1 1 1 1 1 1 1 1 1 1 1 1 1 1 1 1 1 1 1 1 1 1 1 1 1 1 1 1 1 1 1 1 1 1 1 1 1 1 1 1 1 1 1 1 1 1 1 1 1 1 1 1 1 1 1 1 1 1 1 1 1 1 1 1 1 1 1 1 1 1 1 1 1 1 1 1 1 1 1 1 1 1 1 1 1 1 1 1 1 1 1 1 1 1 1 1 1 1 1 1 1 1 1 1 1 1 1 1 1 1 1 1 1 1 1 1 1 1 1 1 1 1 1 1 1 1 1 1 1 1 1 1 1 1 1 1 1 1 1 1 1 1 1 1 1 1 1 1 1 1 1 1 1 1 1 1 1 1 1 1 1 1 1 1 1 1 1 1 1 1 1 1 1 1 1 1 1 1 1 1 1 1 1 1 1 1 1 1 1 1 1 1 1 1 1 1 1 1 1 1 1 1 1 1 1 1 1 1 1 1 1 1 1 1 1 1 1 1 1 1 1 1 1 1 1 1 1 1 1 1 1 1 1 1 1 1 1 1 1 1 1 1 1 1 1 1 1 1 1 1 1 1 1 1 1 1 1 1 1 1 1 1 1 1 1 1 1 1 1 1 1 1 1 1 1 1 1 1 1 1 1 1 1 1 1 1 1 1 1 1 1 1 1 1 1 1 1 1 1 1 1 1 1 1 1 1 1 1 1 1 1 1 1 1 1 1 1 1 1 1 1 1 1 1 1 1 1 1 1 1 1 1 1 1 1 1 1 1 1 1 1 1 1 1 1 1 1 1 1 1 1 1 1 1 1 1 1 1 1 1 1 1 1 1 1 1 1 1 1 1 1 1 1 1 1 1 1 1 1 1 1 1 1 1 1 1 1 1 1 1 1 1 1 1 1 1 1 1 1 1 1 1 1 1 1 1 1 1 1 1 1 1 1 1 1 1 1 1 1 1 1 1 1 1 1 1 1 1 1 1 1 1 1 1 1 1 1 1 1 1 1 1 1 1 1 1 1 1 1 1 1 1 1 1 1 1 1 1 1 1 1 1 1 1 1 1 1 1 1 1 1 1 1 1 1 1 1 1 1 1 1 1 1 1 1 1 1 1 1 1 1 1 1 1 1 1 1 1 1 1 1 1 1 1 1 1 1 1 1 1 1 1 1 1 1 1 1 1 1 1 1 1 1 1 1 1 1 1 1 1 1 1 1 1 1 1 1 1 1 1 1 1 1 1 1 1 1 1 1 1 1 1 1 1 1 1 1 1 1 1 1 1 1 1 1 1 1 1 1 1 1 1 1 1 1 1 1 1 1 1 1 1 1 1 1 1 1 1 1 1 1 1 1 1 1 1 1 1 1 1 1 1 1 1 1 1 1 1 1 1 1 1 1 1 1 1 1 1 1 1 1 1 1 1 1 1 1 1 1 1 1 1 1 1 1 1 1 1 1 1 1 1 1 1 1 1 1 1 1 1 1 1 1 1 1 1 1 1 1 1 1 1 1 1 1 1 1 1 1 1 1 1 1 1 1 1 1 1 1 1 1 1 1 1 1 1 1 1 1 1 1 1 1 1 1 1 1 1 1 1 1 1 1 1 1 1 1 1 1 1 1 1 1 1 1 1 1 1 1 1 1 1 1 1 1 1 1 1 1 1 1 1 1 1 1 1 1 1 1 1 1 1 1 1 1 1 1 1 1 1 1 1 1 1 1 1 1 1 1 1 1 1 1 1 1 1 1 1 1 1 1 1 1 1 1 1 1 1 1 1 1 1 1 1 1 1 1 1 1 1 1 1 1 1 1 1 1 1 1 1 1 1 1 1 1 1 1 1 1 1 1 1 1 1 1 1 1 1 1 1 1 1 1 1 1 1 1 1 1 1 1 1 1 1 1 1 1 1 1 1 1 1 1 1 1 1 1 1 1 1 1 1 1 1 1 1 1 1 1 1 1 1 1 1 1 1 1 1 1 1 1 1 1 1 1 1 1 1 1 1 1 1 1 1 1 1 1 1 1 1 1 1 1 1 1 1 1 1 1 1 1 1 1 1 1 1 1 1 1 1 1 1 1 1 1 1 1 1 1 1 1 1 1 1 1 1 1 1 1 1 1 1 1 1 1 1 1 1 1 1 1 1 1 1 1 1 1 1 1 1 1 1 1 1 1 1 1 1 1 1 1 1 1 1 5 5 5 5 5 5 5 5 5 5 5 5 5 5 5 5 5 5 5 5 5 5 5 5 5 5 5 5 5 5 5 5 5 5 5 5 5 5 5 5 5 5 5 5 5 5 5 5 5 5 5 5 5 5 5 5 5 5 5 5 5 5 5 5 5 5 5 5 5 5 5 5 5 5 5 5 5 5 5 5 5 5 5 5 5 5 5 5 5 5 5 5 5 5 5 5 5 5 5 5 5 5 5 5 5 5 5 5 5 5 5 5 5 5 5 5 5 5 5 5 5 5 5 5 5 5 4 4 4 4 4 4 4 4 4 4 4 4 4 4 4 4 4 4 4 4 4 4 4 4 4 4 4 4 4 4 4 2 2 2 2 2 2 2 2 3 3 3 3 3 3 3 3 4 4 4 4 4 4 4 4 4 4 4 4 4 4 4 4 4 4 4 4 4 4 4 4 4 4 4 4 4 4 4 
</DataArray>
<DataArray type="Float64" Name="u" NumberOfComponents="1" format="ascii">
1.9002610275476944e-01 9.8105508783108686e-01 8.5003793598556698e-02 1.4821903875441111e-01 6.4652462640319319e-02 2.1388780398055546e-01 2.0847800722699934e+00 5.7263518301829297e-01 1.0320642958363200e+00 7.4095150415796662e-01 3.5072980348609195e-01 8.6197869301050500e-01 2.0786118218062901e+00 1.2106327411410589e+00 2.0269778029714861e-01 1.6497077434329013e-01 2.7422376764927714e-01 1.1038016604256368e-01 2.5969341615815200e-01 4.8739251316125898e-01 9.9836267351282459e-01 1.3489362991445806e+00 2.4337744788802140e-01 4.7994461149598522e-01 1.1187560305267166e+00 7.4076721841382698e-01 3.0458775130546589e-01 5.9852331300786576e-01 3.3630349074840216e-01 6.8611543781725426e-01 1.0109348136198404e+00 8.9957079308081966e-01 1.0983929386348406e+00 5.9791614019845604e-02 2.1610300708719561e+00 5.0488322727263568e-01 1.2884121199982213e+00 1.3966911562435675e+00 1.9398084520455028e+00 1.1285641370819510e-01 1.1017470764135990e+00 7.9006511556931991e-01 1.6772590458292578e+00 4.3163793740574641e-01 2.5850633288632618e-01 4.0942651096584681e-01 7.0665643292890623e-01 1.2920015219270857e+00 1.7271223249442751e+00 7.9885872205725750e-01 5.5701159482710283e-01 1.2775290448479781e+00 3.2114424833077537e-01 8.7138520691499832e-01 6.7847646302133113e-01 4.8313084087756220e-01 6.3326038539943519e-01 1.4359142501097020e+00 8.3603771887740785e-01 4.0070094473325579e-01 1.7276668199816859e-02 3.8407592814711683e-01 2.3567161921882263e-01 2.9452079890236116e-01 7.5226960616762062e-01 9.5782582292010288e-01 1.1047030680113057e+00 5.5038562910304026e-02 5.1133322418821814e-01 2.2362089102254540e-01 7.6496291874996514e-01 1.4367625393405550e+00 1.9154393358000571e-01 2.6977594834964869e-01 2.2645197666546819e+00 1.4447184224709209e+00 2.6960233667119839e-02 3.5767988318913430e-01 8.9210617856407382e-02 8.9571264040431586e-01 6.1578729327531878e-01 1.1729836512801524e+00 5.4482491768622776e-01 3.0085151402992460e-01 2.5460607948038079e+00 9.7159834578992865e-01 5.9930326131647657e-02 1.5997648232264355e-01 1.4419566591038167e+00 1.6650761568812467e-01 8.2563332218013663e-01 1.8486505484561780e-01 3.8561134860918561e-01 1.0711719946914955e+00 1.1424620160980825e+00 7.5868470159286949e-01 3.8377430296795551e-02 8.7404109526599205e-01 8.6772528507333146e-01 8.7701452517940170e-01 7.1493864485995562e-01 8.3109409959436165e-01 7.6678821875989693e-03 8.3638994325201743e-01 2.3552864764886863e+00 4.6482024675381967e-01 7.2604580088705384e-01 8.0965727329765314e-01 3.1706303082226572e-01 4.2172883839206787e-01 8.4925322036492368e-01 1.8637601963668837e+00 2.1351346258367138e-01 9.8250386531314862e-02 2.4078534172884920e+00 7.8892200941513824e-01 5.4852476684312722e-02 1.5308100527250861e+00 1.1853565733189870e+00 8.3017661610309412e-01 1.1378249825963396e+00 1.2259348884582000e+00 3.8453552589957507e-01 1.1911320393740250e+00 3.7101816163320179e-03 2.1189638784588651e+00 8.7301770803934764e-01 3.3213274218014616e-01 1.1932231993890946e-01 7.9123708309144480e-01 5.1147811880627024e-02 2.6703989362770986e-01 1.0008167515836233e+00 2.7906415337118184e-01 3.9906592751731762e-01 4.4813931759731279e-01 2.0595104735105885e+00 3.8852296152519533e-01 7.0740065466775429e-02 3.3853794459203002e-01 2.3809889604772494e-01 4.9806601255486771e-01 9.4505194681518589e-01 7.4453134979874469e-01 3.3996250493190749e-01 1.7062285869553202e+00 1.4744544687866528e+00 8.9945564053261517e-01 4.8760493764850099e-01 3.6441971984718091e-01 1.6582538536214754e-02 2.0091977678471711e+00 1.0767945644525052e+00 3.6315298016003539e-01 2.3372136817443381e+00 1.1142085468715590e+00 7.0761442608517733e-01 9.2684900627873379e-01 2.0868669613732710e-01 6.6428054609461751e-01 1.1632727074591014e+00 3.7810657811687881e-01 1.3087750564446732e+00 1.1273492361396069e+00 2.0383231796967314e+00 4.9083821111777626e-01 1.0280791262340763e+00 4.4147179503503536e-01 1.1909414791727725e-01 1.3954951632907755e+00 1.1937201997910700e+00 9.6045427209703282e-01 3.3569426680818415e-01 1.8259335607752675e-01 3.1438958094502412e-01 5.2611330807725598e-01 3.1341551548830959e-01 8.5169836748571348e-01 1.7276013302454929e-01 1.1323233117764851e-01 1.1353915724125336e+00 1.3296290110805553e+00 1.2718313250435522e+00 1.7324033857046062e+00 1.0142625008680071e+00 1.4216918080676098e+00 1.0849238444008180e+00 1.2272902773874078e-01 7.8536159305495956e-01 4.2189409831300806e-01 2.0866998991102310e+00 4.6517107322347595e-01 9.7716118926311479e-01 7.5786949262252734e-01 1.4724471061091055e-01 2.6682809290740472e-02 1.6560247826946735e+00 9.3708319529088235e-01 3.5796043556481649e-01 1.6583963361396583e+00 2.3898347705811224e-01 9.8023607498141474e-01 8.9349775230206652e-01 1.0599555844833424e+00 1.0302528169113159e+00 5.9233902127183546e-01 4.6681195746241111e-01 4.0219953078372361e-01 2.0154064314810177e-01 6.1643315325571635e-01 1.1435114015363319e+00 3.1272766607008096e-01 1.2440837698639950e+00 5.6237016125524453e-02 5.0717088980836156e-01 6.4119002031473116e-01 6.0695010083444267e-01 1.2783785529571046e+00 3.2753472084628199e-01 2.5634668310664344e-01 8.4215946123333141e-01 8.2834959348209347e-01 9.2189253281203221e-01 7.4379522672949450e-01 9.6975471959853077e-01 4.9626724292286040e-01 1.7658139132026549e+00 9.5363603921715190e-01 4.3007700710957630e-01 1.3154385775606618e+00 8.9180551795463442e-02 5.4859593115421779e-01 3.4113384174618344e-01 9.1529872819587532e-01 8.6882619517332127e-01 1.0878694303666561e+00 1.0238155509155129e+00 4.3423725189457030e-01 1.1169137592456327e-01 8.8791398525709164e-01 1.1478199246708884e+00 1.8281059266241897e+00 3.0839179066244926e-01 1.0170883398707384e-01 9.4748044302872869e-01 5.8287775156626243e-01 5.5259734164974128e-01 1.5261942936765425e+00 1.8737640898178332e-01 1.0601977524974289e+00 5.7389101516821883e-01 2.0291700978526445e-01 2.7961078808564632e-01 1.4629639482242240e+00 7.1688712414297662e-01 1.4853155341243771e+00 1.2919738994701144e-01 5.8509354564522098e-01 1.0491020055432385e+00 1.2858546966380429e+00 3.4583653347146437e-01 8.4454651770404188e-01 1.3096690447366135e+00 1.0247908551439657e+00 1.2664057160607856e+00 1.8279246578779584e+00 2.3741865670472739e-01 5.3698591663750173e-01 5.8864597900070503e-01 1.4822503108608778e+00 1.6706536161915894e-01 1.0855862309133497e+00 6.1724987597052206e-01 2.4431719987755485e-01 1.0726028676321999e+00 8.0344563156752913e-01 2.2376909134597298e+00 7.2406448320152084e-01 4.4893284038336778e-01 1.0840986258413809e+00 1.0317162103188229e+00 2.8347263094411729e-01 3.2845688166486697e-01 5.7393604722119984e-01 1.8895380318846583e-01 2.1506889523810067e+00 4.8491940851916426e-01 1.0774181423260130e+00 4.9317175524057505e-01 1.0188757910961463e+00 1.6632671764318494e+00 2.6575242384274222e-01 1.3435313771942684e-01 7.7045424173168886e-01 8.7149747839383673e-01 4.3112494604368023e-01 1.2330645385010492e+00 5.3729582351423477e-01 5.1445348996449147e-01 6.1078495691847923e-01 1.3396398994888195e+00 1.4137635303505340e+00 1.0565499416703159e+00 1.1909731364881222e+00 1.1794158183433843e+00 1.4443505509620228e-01 3.5501996934370494e-01 1.5267120783940977e-01 2.4490669998008457e-01 1.8833788021390507e+00 6.3296183721816146e-01 2.1343595236157080e+00 9.0947243379362408e-01 5.7003705455209219e-01 6.3046918370573724e-01 7.0071538499810715e-01 9.3147817241239994e-01 1.2800991640984956e+00 2.3433642580899132e+00 2.4296764333165197e+00 6.7500168683036232e-01 3.3541518364069267e-01 5.7532055010730865e-01 9.9295250997054829e-01 3.1108623486050441e-01 8.2915392227220086e-01 6.8509317529578317e-01 1.3021967271133481e+00 9.9071462508136654e-01 1.0161612121908683e+00 1.7925863505993975e+00 5.4003831018230830e-01 1.0167798343286234e+00 7.9657606257801017e-01 1.2309237010464535e+00 1.9493973733125758e+00 1.0065362191419489e+00 3.7308204992032001e-01 1.1514082927430578e+00 2.4315220359806516e-01 1.2356231682833800e+00 3.4540125255560067e-01 3.6707249141205406e-02 1.2558699748311613e+00 7.8790784913631051e-01 3.4133616815706036e-01 2.2767498946863213e-01 1.0574104458258596e-01 8.3828806088524310e-01 6.9394660041344114e-01 8.9059579777794262e-01 2.8689135892110096e-01 1.0025084255540058e+00 1.1348999415072347e+00 2.8502234347618852e-02 8.0200060872811318e-01 2.1708539288064208e+00 1.3852319101922355e+00 9.3090333853118523e-01 3.0023742893720984e-01 9.7960964058151379e-01 5.0523013625947216e-02 4.0744381725551462e-02 1.7613310706176315e+00 8.6791351737450051e-01 8.4764953526924525e-01 1.0029414874186788e+00 8.3316210362360610e-01 1.3287252689042410e+00 4.3061234868503595e-01 1.0602658351113536e+00 7.9168594900290268e-01 8.5756290302182170e-01 1.2196390289947309e-01 7.9164576305192066e-02 5.7929336162697820e-01 2.1040564242948880e+00 1.9504839861616158e-01 5.2361391512994293e-01 1.7011911027491720e+00 1.1700682093479249e+00 3.2163714211028449e-01 4.3855106055773507e-01 1.1713823187641641e+00 9.1458289422312233e-01 3.0588812242393505e-02 9.8648732524058785e-02 7.8109363778775220e-01 6.6093307143971891e-01 2.6152129658368845e-01 1.4056202450207167e+00 2.4635616297981155e-01 2.0473106546422035e-01 2.4310673697021706e-01 6.7284723587064832e-01 8.3174296864615593e-01 4.5055937578270000e-01 1.2081931129447532e+00 4.9833769863094923e-01 2.5690197801971471e-01 1.0406679229997620e+00 1.0825017688015177e+00 7.2598599047113543e-01 9.2273039873988849e-01 3.1715535982221404e-01 4.3833218893140502e-01 1.0013096006686724e+00 9.3497382480985247e-01 1.5118753339960839e-01 3.5198881884427335e-01 2.9308550056787752e-01 4.9057594536230065e-01 2.0527631983934735e-01 1.0281771799613395e+00 2.7944824757481090e-01 1.3548374590074490e+00 9.1281038304647388e-01 2.4887546171750419e+00 1.9534160995106853e+00 2.7092639965044873e-01 8.7191003909290499e-01 4.6303247502935602e-02 9.5338693904315996e-01 1.0080852513821950e+00 1.9559617531140945e+00 7.7223778940232246e-01 1.1908255998358777e+00 3.8642028143168350e-01 3.6592784968139891e-01 1.8835799034465192e-01 3.0566340295600675e-01 1.4806525593141586e+00 9.7157056757552973e-01 1.0668172185589473e+00 2.2939131461932085e+00 3.5494256828733567e-01 9.5009124458295913e-01 1.1312106173320191e+00 1.8912947508207967e-01 5.1405950014749469e-01 1.8519340254891170e+00 5.9213107608902527e-01 2.6473726118172325e-01 7.5522885843664211e-01 1.1010555688818722e+00 1.5103798133687280e-01 7.3533841542439271e-01 2.0851999879157601e+00 1.4964482848344811e+00 1.4289946945905665e+00 9.6252855281672889e-01 9.8624296033460956e-01 6.7032530820870448e-02 2.7053296694008333e-01 5.7601908739130359e-01 1.4977020772227259e+00 1.8465644653593882e+00 1.2163752689724847e+00 1.4050394442614911e+00 1.4514269242983300e+00 1.0042811258976316e+00 8.4085588818185497e-01 1.6081394125186779e+00 1.0656065396669330e+00 6.2579693497238253e-01 1.1565677730568029e+00 8.9027236504361151e-01 1.5517315976813943e+00 1.5181354982633507e-02 7.1730286701464929e-01 9.6107107051050435e-03 3.1010792704440304e-01 1.6419743883940252e+00 9.9488408121044292e-01 9.9301742040603675e-03 9.9986457455973021e-01 4.1993623580192790e-01 5.2554899792699106e-01 8.5752563789282077e-01 7.7044371604760631e-01 1.8073927761825442e-01 2.2247642705225332e+00 4.9595932261369302e-01 7.6935184235809348e-02 1.3977706477030178e+00 5.5845480873162401e-01 6.4678493165187700e-01 1.0831947033378293e+00 6.8323526002086110e-01 1.1357221735536651e+00 1.6566398838634316e-01 9.6392104192334227e-01 1.6077679054124955e-01 2.4894732535318242e-01 1.0237518461294837e-01 8.8255918330557459e-02 1.0029243268392793e+00 2.6946960534398839e-01 3.1215415908889454e-01 1.4394620841866463e+00 1.1584467321576093e+00 7.1030506743577720e-02 9.2545193432466721e-01 1.3174827644250335e+00 9.1543501684091222e-01 3.9171951866731902e-01 1.0514455904628524e+00 2.9928773598456559e-01 2.3451880376010203e-01 1.3995849769602966e+00 8.8656567640408901e-01 9.2214743552539713e-01 1.2227375095862443e+00 3.5545353911146671e-01 9.4893618700035254e-01 5.1024380530704128e-01 5.6359102697072061e-02 5.6867735552845433e-01 4.4199338590344817e-01 5.2674696673510779e-01 1.0147840278242874e+00 9.6910261532040520e-01 1.4542976679639283e+00 6.0612913750179298e-01 7.6400545472919668e-01 7.0928346608640058e-02 7.9148341042227233e-01 1.2529762737699137e+00 1.0819595491433367e+00 1.2030601941395838e+00 1.0734396237736878e+00 1.6905398728886103e+00 2.3024878400583288e+00 1.6187948087085995e+00 5.0799706922366794e-01 1.3562807717075658e+00 4.4693247481858506e-01 1.5525370472909077e+00 7.0727745049845248e-01 6.0201275497797846e-01 1.6083550369077892e+00 1.0252986130348334e+00 1.5644216553958152e+00 1.7220245158498748e-01 6.9397224296727833e-01 6.6168332481625769e-01 1.6586230272882836e+00 9.8417754974715743e-01 3.6714327393303478e-02 4.4606628674904442e-01 1.5182213734824528e+00 1.1209941415557649e+00 1.3524734776560132e-02 1.6384937136754023e+00 2.6658021256508102e-01 9.4461463908324036e-02 1.2078124766562901e+00 1.4557470112569986e+00 2.2331286882323020e+00 2.7418859213340652e-01 1.2257422999508767e+00 1.2565970691524975e+00 1.2090363141808143e+00 7.8713613608444866e-01 6.7253110373522584e-01 1.8248912533844916e-01 1.3508939754371441e+00 9.4716177440810256e-01 9.6797104391391231e-01 5.6374890489770457e-01 1.9342478560817758e-01 1.3714938583876346e-01 3.9476233799348692e-01 4.6597551068636639e-02 2.4312209776727949e+00 9.6218947604689564e-01 1.0163805715081149e+00 8.3305052443874750e-01 9.6619762313049162e-01 9.3963352236558162e-02 1.1526961317935323e+00 9.5191567809805389e-01 4.1447146738242846e-01 1.2037636301459504e+00 3.1002259495973983e-01 1.0378492298977187e+00 6.5640768020378881e-01 2.3668348974540790e-01 7.2692651029881528e-01 1.0277838817818115e+00 5.1215019539592843e-01 1.4912811209232371e+00 2.4824216650341915e-02 1.3253758230821444e+00 7.4101245055250264e-01 2.1041132641018030e+00 9.1702018035566324e-01 1.3597358075267789e+00 8.1522948387728755e-01 1.4896296545072090e+00 1.3162901456472242e+00 8.6477119819583514e-01 1.4187293813353334e+00 4.5883572841557912e-01 9.7028403993648560e-01 9.6382291965149092e-01 1.2257184839545472e+00 1.3789679326811093e+00 7.8778012770495742e-01 8.6042046406976103e-01 9.7040162959198306e-01 6.3188038350092257e-01 7.7901035301164123e-01 4.9968603754139429e-01 1.2044340330490220e+00 4.2086982454279298e-01 1.4088921624152797e+00 9.8161116911172575e-01 2.2106350054474938e-01 1.5036453169228511e-01 6.0651484108906739e-01 1.5020449495374564e+00 1.3257058711044887e+00 5.0004778793584137e-01 1.0224797574195050e+00 1.4264063275283831e+00 1.3249742214173412e+00 5.5945864691687608e-01 2.2460565438711588e-01 7.3114394415448480e-01 1.0501847501245960e+00 2.0391879786250180e+00 3.2171493895920866e-01 6.4457085959570026e-01 1.9870216238591659e-01 1.0114747354532694e+00 5.4933962196423680e-01 4.0821027171909408e-01 1.1128619573762106e+00 4.5062449246438147e-01 9.9265598389778065e-01 1.1082253698087932e+00 1.2859384871561650e+00 1.3482520922652994e+00 1.5450626510434398e-01 9.2193905052051561e-01 5.1774191123541136e-01 1.4268456442270061e+00 4.7728980620250677e-01 2.8993375819697909e-01 8.4280867471031995e-01 1.2826778780698160e+00 8.1921671321103395e-02 1.9637605112366023e+00 2.1207630434343711e-01 1.2335211596214182e-01 7.2108328315095727e-01 4.3873347247079997e-01 2.3645442145955196e+00 1.3595130506316147e+00 1.1952936792076663e-01 1.1927593621060288e+00 1.0058136946836918e+00 7.3238257883297353e-01 2.0557620080764860e-01 1.0079597993982499e+00 8.5091555131530972e-01 9.1051756235426207e-01 5.2028334571844442e-02 7.7853010185024063e-01 1.4246571631192556e-01 7.9433729645201900e-01 6.5015538312383159e-01 1.7742607058001045e+00 8.9934584331425960e-01 6.3945989653240409e-01 8.9285502049681731e-01 2.5035901796904785e+00 9.8135372156139233e-01 8.7159510418367