<?xml version="1.0"?>
<VTKFile type="UnstructuredGrid"  byte_order="LittleEndian">
<UnstructuredGrid>
<Piece NumberOfPoints="1377" NumberOfCells=" 2756">
<Points>
<DataArray type="Float32" NumberOfComponents="3" format="ascii">
22.669411 2.952635 0.000000 7.384019 1.283768 0.000000 0.815749 -4.606515 0.000000 36.738064 -4.606515 0.000000 0.815749 5.343230 0.000000 36.738064 5.343230 0.000000 22.663322 3.074638 0.000000 22.645115 3.195428 0.000000 22.614973 3.313805 0.000000 22.573195 3.428593 0.000000 22.520193 3.538651 0.000000 22.456497 3.642884 0.000000 22.382740 3.740258 0.000000 22.299654 3.829804 0.000000 22.208063 3.910632 0.000000 22.108881 3.981939 0.000000 22.003092 4.043016 0.000000 21.891748 4.093257 0.000000 21.775953 4.132162 0.000000 21.656862 4.159344 0.000000 21.535656 4.174533 0.000000 21.413538 4.177578 0.000000 21.291725 4.168449 0.000000 21.171427 4.147237 0.000000 21.053837 4.114153 0.000000 20.940126 4.069525 0.000000 20.831425 4.013797 0.000000 20.728811 3.947522 0.000000 20.633307 3.871360 0.000000 20.545860 3.786067 0.000000 20.467340 3.692491 0.000000 20.398529 3.591562 0.000000 20.340107 3.484283 0.000000 20.292658 3.371720 0.000000 20.256653 3.254992 0.000000 20.232449 3.135260 0.000000 20.220285 3.013712 0.000000 20.220285 2.891557 0.000000 20.232449 2.770010 0.000000 20.256653 2.650277 0.000000 20.292658 2.533549 0.000000 20.340107 2.420986 0.000000 20.398529 2.313708 0.000000 20.467340 2.212779 0.000000 20.545860 2.119203 0.000000 20.633307 2.033910 0.000000 20.728811 1.957747 0.000000 20.831425 1.891473 0.000000 20.940126 1.835745 0.000000 21.053837 1.791116 0.000000 21.171427 1.758032 0.000000 21.291725 1.736820 0.000000 21.413538 1.727691 0.000000 21.535656 1.730737 0.000000 21.656862 1.745926 0.000000 21.775953 1.773108 0.000000 21.891748 1.812013 0.000000 22.003092 1.862253 0.000000 22.108881 1.923331 0.000000 22.208063 1.994638 0.000000 22.299654 2.075466 0.000000 22.382740 2.165012 0.000000 22.456497 2.262385 0.000000 22.520193 2.366619 0.000000 22.573195 2.476676 0.000000 22.614973 2.591464 0.000000 22.645115 2.709841 0.000000 22.663322 2.830632 0.000000 7.378455 1.395258 0.000000 7.361817 1.505640 0.000000 7.334272 1.613816 0.000000 7.296093 1.718713 0.000000 7.247659 1.819286 0.000000 7.189452 1.914538 0.000000 7.122050 2.003520 0.000000 7.046124 2.085350 0.000000 6.962427 2.159213 0.000000 6.871791 2.224375 0.000000 6.775118 2.280190 0.000000 6.673368 2.326101 0.000000 6.567553 2.361653 0.000000 6.458723 2.386493 0.000000 6.347961 2.400373 0.000000 6.236367 2.403156 0.000000 6.125051 2.394814 0.000000 6.015119 2.375430 0.000000 5.907662 2.345196 0.000000 5.803750 2.304414 0.000000 5.704415 2.253488 0.000000 5.610644 2.192924 0.000000 5.523370 2.123325 0.000000 5.443459 2.045382 0.000000 5.371705 1.959870 0.000000 5.308823 1.867638 0.000000 5.255436 1.769603 0.000000 5.212076 1.666740 0.000000 5.179173 1.560071 0.000000 5.157054 1.450656 0.000000 5.145939 1.339582 0.000000 5.145939 1.227954 0.000000 5.157054 1.116880 0.000000 5.179173 1.007465 0.000000 5.212076 0.900796 0.000000 5.255436 0.797933 0.000000 5.308823 0.699899 0.000000 5.371705 0.607667 0.000000 5.443459 0.522155 0.000000 5.523370 0.444211 0.000000 5.610644 0.374612 0.000000 5.704415 0.314049 0.000000 5.803750 0.263123 0.000000 5.907662 0.222340 0.000000 6.015119 0.192107 0.000000 6.125051 0.172722 0.000000 6.236367 0.164380 0.000000 6.347961 0.167163 0.000000 6.458723 0.181044 0.000000 6.567553 0.205883 0.000000 6.673368 0.241436 0.000000 6.775118 0.287347 0.000000 6.871791 0.343161 0.000000 6.962427 0.408324 0.000000 7.046124 0.482187 0.000000 7.122050 0.564016 0.000000 7.189452 0.652999 0.000000 7.247659 0.748250 0.000000 7.296093 0.848824 0.000000 7.334272 0.953720 0.000000 7.361817 1.061897 0.000000 7.378455 1.172279 0.000000 1.813591 -4.606515 0.000000 2.811433 -4.606515 0.000000 3.809275 -4.606515 0.000000 4.807117 -4.606515 0.000000 5.804959 -4.606515 0.000000 6.802801 -4.606515 0.000000 7.800643 -4.606515 0.000000 8.798486 -4.606515 0.000000 9.796328 -4.606515 0.000000 10.794169 -4.606515 0.000000 11.792012 -4.606515 0.000000 12.789854 -4.606515 0.000000 13.787696 -4.606515 0.000000 14.785538 -4.606515 0.000000 15.783381 -4.606515 0.000000 16.781221 -4.606515 0.000000 17.779064 -4.606515 0.000000 18.776907 -4.606515 0.000000 19.774748 -4.606515 0.000000 20.772591 -4.606515 0.000000 21.770433 -4.606515 0.000000 22.768274 -4.606515 0.000000 23.766117 -4.606515 0.000000 24.763958 -4.606515 0.000000 25.761801 -4.606515 0.000000 26.759644 -4.606515 0.000000 27.757484 -4.606515 0.000000 28.755327 -4.606515 0.000000 29.753170 -4.606515 0.000000 30.751011 -4.606515 0.000000 31.748854 -4.606515 0.000000 32.746696 -4.606515 0.000000 33.744537 -4.606515 0.000000 34.742378 -4.606515 0.000000 35.740223 -4.606515 0.000000 0.815749 4.348256 0.000000 0.815749 3.353281 0.000000 0.815749 2.358307 0.000000 0.815749 1.363332 0.000000 0.815749 0.368358 0.000000 0.815749 -0.626617 0.000000 0.815749 -1.621591 0.000000 0.815749 -2.616566 0.000000 0.815749 -3.611540 0.000000 36.738064 -3.611540 0.000000 36.738064 -2.616566 0.000000 36.738064 -1.621591 0.000000 36.738064 -0.626617 0.000000 36.738064 0.368358 0.000000 36.738064 1.363332 0.000000 36.738064 2.358307 0.000000 36.738064 3.353281 0.000000 36.738064 4.348256 0.000000 35.740223 5.343230 0.000000 34.742378 5.343230 0.000000 33.744537 5.343230 0.000000 32.746696 5.343230 0.000000 31.748854 5.343230 0.000000 30.751011 5.343230 0.000000 29.753170 5.343230 0.000000 28.755327 5.343230 0.000000 27.757484 5.343230 0.000000 26.759644 5.343230 0.000000 25.761801 5.343230 0.000000 24.763958 5.343230 0.000000 23.766117 5.343230 0.000000 22.768274 5.343230 0.000000 21.770433 5.343230 0.000000 20.772591 5.343230 0.000000 19.774748 5.343230 0.000000 18.776907 5.343230 0.000000 17.779064 5.343230 0.000000 16.781221 5.343230 0.000000 15.783381 5.343230 0.000000 14.785538 5.343230 0.000000 13.787696 5.343230 0.000000 12.789854 5.343230 0.000000 11.792012 5.343230 0.000000 10.794169 5.343230 0.000000 9.796328 5.343230 0.000000 8.798486 5.343230 0.000000 7.800643 5.343230 0.000000 6.802801 5.343230 0.000000 5.804959 5.343230 0.000000 4.807117 5.343230 0.000000 3.809275 5.343230 0.000000 2.811433 5.343230 0.000000 1.813591 5.343230 0.000000 12.432213 -3.707163 0.000000 16.347418 -3.767751 0.000000 26.239056 -3.762268 0.000000 16.157780 4.546326 0.000000 11.370172 4.452746 0.000000 26.299454 4.641312 0.000000 31.329445 4.393038 0.000000 19.332403 -3.857568 0.000000 29.251242 -3.749679 0.000000 23.065962 -3.754662 0.000000 32.048233 -3.749728 0.000000 9.297406 -3.742358 0.000000 35.892719 0.881357 0.000000 4.308196 -3.742358 0.000000 1.657730 -1.027759 0.000000 7.341048 -3.707660 0.000000 1.655361 2.755382 0.000000 9.245193 4.563405 0.000000 1.718046 0.914565 0.000000 18.307098 4.542856 0.000000 20.168037 3.348277 0.000000 20.267401 3.602500 0.000000 20.390549 3.805213 0.000000 20.610210 4.018528 0.000000 20.813734 4.162331 0.000000 21.101437 4.262140 0.000000 21.329954 4.326285 0.000000 21.564465 4.300658 0.000000 21.908632 4.224862 0.000000 22.090525 4.165653 0.000000 22.353130 3.959208 0.000000 22.503988 3.748547 0.000000 21.295963 -3.779061 0.000000 13.172264 4.441161 0.000000 28.273087 4.500810 0.000000 14.324469 -3.769660 0.000000 4.221564 4.612133 0.000000 5.819990 2.420815 0.000000 33.358810 4.589193 0.000000 35.760162 -1.041111 0.000000 24.277355 4.688297 0.000000 22.706535 3.402470 0.000000 7.134151 4.612705 0.000000 6.170078 2.508208 0.000000 6.764004 2.391263 0.000000 6.546537 2.476976 0.000000 35.935970 2.815484 0.000000 34.204201 -3.633500 0.000000 2.237623 -3.753257 0.000000 2.388471 4.482387 0.000000 35.876392 -3.114053 0.000000 35.246246 4.564263 0.000000 8.427895 4.550037 0.000000 8.801902 3.793599 0.000000 7.072647 2.196637 0.000000 9.548985 3.843961 0.000000 9.190937 3.256241 0.000000 7.311791 1.917325 0.000000 9.785693 3.212874 0.000000 9.388778 2.681305 0.000000 10.022032 2.644802 0.000000 9.697289 2.165630 0.000000 10.267948 2.098695 0.000000 9.924894 1.591783 0.000000 10.634724 1.551304 0.000000 7.477789 1.344332 0.000000 10.186516 1.001314 0.000000 10.841074 0.922904 0.000000 7.444988 1.582754 0.000000 10.430796 0.389699 0.000000 11.131720 0.306523 0.000000 11.547066 0.854320 0.000000 11.862791 0.217080 0.000000 12.290525 0.841386 0.000000 9.753911 0.475186 0.000000 7.444702 0.982282 0.000000 12.630180 0.139569 0.000000 13.086929 0.790857 0.000000 13.425966 0.061539 0.000000 13.908542 0.730012 0.000000 14.251240 -0.003037 0.000000 14.737794 0.661890 0.000000 15.084652 -0.072903 0.000000 15.551068 0.581090 0.000000 15.876319 -0.145591 0.000000 16.308090 0.478204 0.000000 16.613283 -0.190874 0.000000 17.016582 0.361209 0.000000 17.298765 -0.235408 0.000000 17.673943 0.278136 0.000000 17.932474 -0.289168 0.000000 18.259481 0.211181 0.000000 20.170135 2.557966 0.000000 20.340309 2.197515 0.000000 18.033113 0.716804 0.000000 18.562893 0.653042 0.000000 18.367033 1.111318 0.000000 18.783037 0.186103 0.000000 19.056293 0.595356 0.000000 20.584917 1.914106 0.000000 19.262131 0.172254 0.000000 20.114399 2.821342 0.000000 20.113695 3.084367 0.000000 19.506163 0.551642 0.000000 19.715685 0.150538 0.000000 20.949535 1.705823 0.000000 19.314840 0.936722 0.000000 19.473225 -0.222653 0.000000 19.942863 -0.242599 0.000000 20.222378 0.175585 0.000000 20.409935 -0.261837 0.000000 20.670889 0.095216 0.000000 21.344873 1.629105 0.000000 20.853199 -0.279896 0.000000 21.097477 0.142810 0.000000 21.282185 -0.278359 0.000000 21.516943 0.080593 0.000000 21.740864 1.657126 0.000000 21.705120 -0.291205 0.000000 21.931976 0.063614 0.000000 22.129063 -0.314395 0.000000 22.355223 0.056346 0.000000 22.565746 -0.326226 0.000000 22.819603 0.070781 0.000000 22.221207 1.867849 0.000000 23.061064 -0.342513 0.000000 23.306765 0.078040 0.000000 23.613901 -0.373180 0.000000 23.842957 0.187642 0.000000 22.738478 2.621233 0.000000 22.580437 2.257779 0.000000 21.990385 1.741385 0.000000 22.424376 2.036
[...]
<CellData Scalars="Label">
<DataArray type="Int32" Name="Label" format="ascii">
1 1 1 1 1 1 1 1 1 1 1 1 1 1 1 1 1 1 1 1 1 1 1 1 1 1 1 1 1 1 1 1 1 1 1 1 1 1 1 1 1 1 1 1 1 1 1 1 1 1 1 1 1 1 1 1 1 1 1 1 1 1 1 1 1 1 1 1 1 1 1 1 1 1 1 1 1 1 1 1 1 1 1 1 1 1 1 1 1 1 1 1 1 1 1 1 1 1 1 1 1 1 1 1 1 1 1 1 1 1 1 1 1 1 1 1 1 1 1 1 1 1 1 1 1 1 1 1 1 1 1 1 1 1 1 1 1 1 1 1 1 1 1 1 1 1 1 1 1 1 1 1 1 1 1 1 1 1 1 1 1 1 1 1 1 1 1 1 1 1 1 1 1 1 1 1 1 1 1 1 1 1 1 1 1 1 1 1 1 1 1 1 1 1 1 1 1 1 1 1 1 1 1 1 1 1 1 1 1 1 1 1 1 1 1 1 1 1 1 1 1 1 1 1 1 1 1 1 1 1 1 1 1 1 1 1 1 1 1 1 1 1 1 1 1 1 1 1 1 1 1 1 1 1 1 1 1 1 1 1 1 1 1 1 1 1 1 1 1 1 1 1 1 1 1 1 1 1 1 1 1 1 1 1 1 1 1 1 1 1 1 1 1 1 1 1 1 1 1 1 1 1 1 1 1 1 1 1 1 1 1 1 1 1 1 1 1 1 1 1 1 1 1 1 1 1 1 1 1 1 1 1 1 1 1 1 1 1 1 1 1 1 1 1 1 1 1 1 1 1 1 1 1 1 1 1 1 1 1 1 1 1 1 1 1 1 1 1 1 1 1 1 1 1 1 1 1 1 1 1 1 1 1 1 1 1 1 1 1 1 1 1 1 1 1 1 1 1 1 1 1 1 1 1 1 1 1 1 1 1 1 1 1 1 1 1 1 1 1 1 1 1 1 1 1 1 1 1 1 1 1 1 1 1 1 1 1 1 1 1 1 1 1 1 1 1 1 1 1 1 1 1 1 1 1 1 1 1 1 1 1 1 1 1 1 1 1 1 1 1 1 1 1 1 1 1 1 1 1 1 1 1 1 1 1 1 1 1 1 1 1 1 1 1 1 1 1 1 1 1 1 1 1 1 1 1 1 1 1 1 1 1 1 1 1 1 1 1 1 1 1 1 1 1 1 1 1 1 1 1 1 1 1 1 1 1 1 1 1 1 1 1 1 1 1 1 1 1 1 1 1 1 1 1 1 1 1 1 1 1 1 1 1 1 1 1 1 1 1 1 1 1 1 1 1 1 1 1 1 1 1 1 1 1 1 1 1 1 1 1 1 1 1 1 1 1 1 1 1 1 1 1 1 1 1 1 1 1 1 1 1 1 1 1 1 1 1 1 1 1 1 1 1 1 1 1 1 1 1 1 1 1 1 1 1 1 1 1 1 1 1 1 1 1 1 1 1 1 1 1 1 1 1 1 1 1 1 1 1 1 1 1 1 1 1 1 1 1 1 1 1 1 1 1 1 1 1 1 1 1 1 1 1 1 1 1 1 1 1 1 1 1 1 1 1 1 1 1 1 1 1 1 1 1 1 1 1 1 1 1 1 1 1 1 1 1 1 1 1 1 1 1 1 1 1 1 1 1 1 1 1 1 1 1 1 1 1 1 1 1 1 1 1 1 1 1 1 1 1 1 1 1 1 1 1 1 1 1 1 1 1 1 1 1 1 1 1 1 1 1 1 1 1 1 1 1 1 1 1 1 1 1 1 1 1 1 1 1 1 1 1 1 1 1 1 1 1 1 1 1 1 1 1 1 1 1 1 1 1 1 1 1 1 1 1 1 1 1 1 1 1 1 1 1 1 1 1 1 1 1 1 1 1 1 1 1 1 1 1 1 1 1 1 1 1 1 1 1 1 1 1 1 1 1 1 1 1 1 1 1 1 1 1 1 1 1 1 1 1 1 1 1 1 1 1 1 1 1 1 1 1 1 1 1 1 1 1 1 1 1 1 1 1 1 1 1 1 1 1 1 1 1 1 1 1 1 1 1 1 1 1 1 1 1 1 1 1 1 1 1 1 1 1 1 1 1 1 1 1 1 1 1 1 1 1 1 1 1 1 1 1 1 1 1 1 1 1 1 1 1 1 1 1 1 1 1 1 1 1 1 1 1 1 1 1 1 1 1 1 1 1 1 1 1 1 1 1 1 1 1 1 1 1 1 1 1 1 1 1 1 1 1 1 1 1 1 1 1 1 1 1 1 1 1 1 1 1 1 1 1 1 1 1 1 1 1 1 1 1 1 1 1 1 1 1 1 1 1 1 1 1 1 1 1 1 1 1 1 1 1 1 1 1 1 1 1 1 1 1 1 1 1 1 1 1 1 1 1 1 1 1 1 1 1 1 1 1 1 1 1 1 1 1 1 1 1 1 1 1 1 1 1 1 1 1 1 1 1 1 1 1 1 1 1 1 1 1 1 1 1 1 1 1 1 1 1 1 1 1 1 1 1 1 1 1 1 1 1 1 1 1 1 1 1 1 1 1 1 1 1 1 1 1 1 1 1 1 1 1 1 1 1 1 1 1 1 1 1 1 1 1 1 1 1 1 1 1 1 1 1 1 1 1 1 1 1 1 1 1 1 1 1 1 1 1 1 1 1 1 1 1 1 1 1 1 1 1 1 1 1 1 1 1 1 1 1 1 1 1 1 1 1 1 1 1 1 1 1 1 1 1 1 1 1 1 1 1 1 1 1 1 1 1 1 1 1 1 1 1 1 1 1 1 1 1 1 1 1 1 1 1 1 1 1 1 1 1 1 1 1 1 1 1 1 1 1 1 1 1 1 1 1 1 1 1 1 1 1 1 1 1 1 1 1 1 1 1 1 1 1 1 1 1 1 1 1 1 1 1 1 1 1 1 1 1 1 1 1 1 1 1 1 1 1 1 1 1 1 1 1 1 1 1 1 1 1 1 1 1 1 1 1 1 1 1 1 1 1 1 1 1 1 1 1 1 1 1 1 1 1 1 1 1 1 1 1 1 1 1 1 1 1 1 1 1 1 1 1 1 1 1 1 1 1 1 1 1 1 1 1 1 1 1 1 1 1 1 1 1 1 1 1 1 1 1 1 1 1 1 1 1 1 1 1 1 1 1 1 1 1 1 1 1 1 1 1 1 1 1 1 1 1 1 1 1 1 1 1 1 1 1 1 1 1 1 1 1 1 1 1 1 1 1 1 1 1 1 1 1 1 1 1 1 1 1 1 1 1 1 1 1 1 1 1 1 1 1 1 1 1 1 1 1 1 1 1 1 1 1 1 1 1 1 1 1 1 1 1 1 1 1 1 1 1 1 1 1 1 1 1 1 1 1 1 1 1 1 1 1 1 1 1 1 1 1 1 1 1 1 1 1 1 1 1 1 1 1 1 1 1 1 1 1 1 1 1 1 1 1 1 1 1 1 1 1 1 1 1 1 1 1 1 1 1 1 1 1 1 1 1 1 1 1 1 1 1 1 1 1 1 1 1 1 1 1 1 1 1 1 1 1 1 1 1 1 1 1 1 1 1 1 1 1 1 1 1 1 1 1 1 1 1 1 1 1 1 1 1 1 1 1 1 1 1 1 1 1 1 1 1 1 1 1 1 1 1 1 1 1 1 1 1 1 1 1 1 1 1 1 1 1 1 1 1 1 1 1 1 1 1 1 1 1 1 1 1 1 1 1 1 1 1 1 1 1 1 1 1 1 1 1 1 1 1 1 1 1 1 1 1 1 1 1 1 1 1 1 1 1 1 1 1 1 1 1 1 1 1 1 1 1 1 1 1 1 1 1 1 1 1 1 1 1 1 1 1 1 1 1 1 1 1 1 1 1 1 1 1 1 1 1 1 1 1 1 1 1 1 1 1 1 1 1 1 1 1 1 1 1 1 1 1 1 1 1 1 1 1 1 1 1 1 1 1 1 1 1 1 1 1 1 1 1 1 1 1 1 1 1 1 1 1 1 1 1 1 1 1 1 1 1 1 1 1 1 1 1 1 1 1 1 1 1 1 1 1 1 1 1 1 1 1 1 1 1 1 1 1 1 1 1 1 1 1 1 1 1 1 1 1 1 1 1 1 1 1 1 1 1 1 1 1 1 1 1 1 1 1 1 1 1 1 1 1 1 1 1 1 1 1 1 1 1 1 1 1 1 1 1 1 1 1 1 1 1 1 1 1 1 1 1 1 1 1 1 1 1 1 1 1 1 1 1 1 1 1 1 1 1 1 1 1 1 1 1 1 1 1 1 1 1 1 1 1 1 1 1 1 1 1 1 1 1 1 1 1 1 1 1 1 1 1 1 1 1 1 1 1 1 1 1 1 1 1 1 1 1 1 1 1 1 1 1 1 1 1 1 1 1 1 1 1 1 1 1 1 1 1 1 1 1 1 1 1 1 1 1 1 1 1 1 1 1 1 1 1 1 1 1 1 1 1 1 1 1 1 1 1 1 1 1 1 1 1 1 1 1 1 1 1 1 1 1 1 1 1 1 1 1 1 1 1 1 1 1 1 1 1 1 1 1 1 1 1 1 1 1 1 1 1 1 1 1 1 1 1 1 1 1 1 1 1 1 1 1 1 1 1 1 1 1 1 1 1 1 1 1 1 1 1 1 1 1 1 1 1 1 1 1 1 1 1 1 1 1 1 1 1 1 1 1 1 1 1 1 1 1 1 1 1 1 1 1 1 1 1 1 1 1 1 1 1 1 1 1 1 1 1 1 1 1 1 1 1 1 1 1 1 1 1 1 1 1 1 1 1 1 1 1 1 1 1 1 1 1 1 1 1 1 1 1 1 1 1 1 1 1 1 1 1 1 1 1 1 1 1 1 1 1 1 1 1 1 1 1 1 1 1 1 1 1 1 1 1 1 1 1 1 1 1 1 1 1 1 1 1 1 1 1 1 1 1 1 1 1 1 1 1 1 1 1 1 1 1 1 1 1 1 1 1 1 1 1 1 1 1 1 1 1 1 1 1 1 1 1 1 1 1 1 1 1 1 1 1 1 1 1 1 1 1 1 1 1 1 1 1 1 1 1 1 1 1 1 1 1 1 1 1 1 1 1 1 1 1 1 1 1 1 1 1 1 1 1 1 1 1 1 1 1 1 1 1 1 1 1 1 1 1 1 1 1 1 1 1 1 1 1 1 1 1 1 1 1 1 1 1 1 1 1 1 1 1 1 1 1 1 1 1 1 1 1 1 1 1 1 1 1 1 1 1 1 1 1 1 1 1 1 1 1 1 1 1 1 1 1 1 1 1 1 1 1 1 1 1 1 1 1 1 1 1 1 1 1 1 1 1 1 1 1 1 1 1 1 1 1 1 1 1 1 1 1 1 1 1 1 1 1 1 1 1 1 1 1 1 1 1 1 1 1 1 1 1 1 1 1 1 1 1 1 1 1 1 1 1 1 1 1 1 1 1 1 1 1 1 1 1 1 1 1 1 1 1 1 1 1 1 1 1 1 1 1 1 1 1 1 1 1 1 1 1 1 1 1 1 1 1 1 1 1 1 1 1 1 1 1 1 1 1 1 1 1 1 1 1 1 1 1 1 1 1 1 1 1 1 1 1 1 1 1 1 1 1 1 1 1 1 1 1 1 1 1 1 1 1 1 1 1 1 1 1 1 1 1 1 1 1 1 1 1 1 1 1 1 1 1 1 1 1 1 1 1 1 1 1 1 1 1 1 5 5 5 5 5 5 5 5 5 5 5 5 5 5 5 5 5 5 5 5 5 5 5 5 5 5 5 5 5 5 5 5 5 5 5 5 5 5 5 5 5 5 5 5 5 5 5 5 5 5 5 5 5 5 5 5 5 5 5 5 5 5 5 5 5 5 5 5 5 5 5 5 5 5 5 5 5 5 5 5 5 5 5 5 5 5 5 5 5 5 5 5 5 5 5 5 5 5 5 5 5 5 5 5 5 5 5 5 5 5 5 5 5 5 5 5 5 5 5 5 5 5 5 5 5 5 4 4 4 4 4 4 4 4 4 4 4 4 4 4 4 4 4 4 4 4 4 4 4 4 4 4 4 4 4 4 4 4 4 4 4 4 2 2 2 2 2 2 2 2 2 2 3 3 3 3 3 3 3 3 3 3 4 4 4 4 4 4 4 4 4 4 4 4 4 4 4 4 4 4 4 4 4 4 4 4 4 4 4 4 4 4 4 4 4 4 4 4 
</DataArray>
<DataArray type="Float64" Name="u" NumberOfComponents="1" format="ascii">
2.8979179206936284e-01 2.7417231105538509e-01 9.7191786874302810e-01 9.3223096109559545e-01 1.1400816786729207e+00 5.2855307759160131e-01 2.4045330095308115e-01 1.1166433314503401e+00 1.0272776336929224e+00 3.2103853651717540e-01 1.4892212708952215e+00 2.2075804252654735e-01 1.4589430179364715e-01 7.4917474367603654e-01 1.8760158157485596e+00 7.1085003029382787e-01 1.0794771042405999e+00 1.0464047730108261e+00 6.2474337673395747e-02 1.9177306454719907e+00 6.9864163990139372e-01 8.0878360353592327e-01 5.1076941209635671e-02 9.7311206945708817e-01 6.3682926724204103e-01 1.4962244178716202e-01 9.8282000874370190e-01 9.3728658894224426e-01 2.7421985271962795e-02 9.8140301637078564e-01 1.0177239570061472e+00 2.1352393766354372e-01 1.4762596997739361e-01 2.8315563191370186e-01 1.0896780119649214e+00 2.1164079951156656e-01 7.5558812204536197e-01 1.1966083811886836e+00 2.1707383413786741e-01 7.6424862515790462e-02 8.4538778927518143e-01 3.2741720634004656e-01 3.0030045650243448e-01 7.8745388349802159e-01 1.0295582688078646e+00 4.8329603618555261e-02 1.0665159415657071e+00 1.8290033055437571e-01 1.1643492387707053e+00 2.2729843630483104e-01 3.3923758094681200e-01 8.5740481813987568e-01 1.3329817668611832e-01 9.5007616811738527e-01 3.0903309577754601e-01 2.5932194617310178e-01 9.7252973388723540e-01 8.2398381565392276e-01 3.7424202546906293e-01 7.0158660954611027e-02 1.0653166626800381e+00 1.7195223699528550e-01 1.0052468661308500e+00 1.4973703272840027e+00 7.0594568459456841e-01 1.5246255980641787e-01 1.6808494885970643e-01 1.1795762241729832e+00 3.1599665428753188e-01 7.3770827237212977e-01 1.4882600374821504e+00 8.7879259949530697e-01 2.8829948243449932e-01 2.1960053742387170e-01 3.7378779950977090e-02 3.1390902652393748e-01 8.3009492679692365e-01 2.3502740401831967e-01 1.0729368503804588e+00 6.9038463411404516e-01 1.7420538702997296e-01 1.0873226029592127e+00 6.3734296796931122e-01 2.4805748921054910e-01 1.1114766620387273e+00 8.9674721157035464e-01 3.2262597385906255e-01 2.7015075814990164e-01 1.2059623118355014e+00 9.6585255124044422e-02 3.9329255966435517e-01 6.7493870561820934e-01 1.3171291293894614e+00 1.6223706382408014e+00 1.4197294424252695e+00 7.2116097780543509e-01 3.5166494877480170e-01 1.7955264331123240e+00 9.9180745380981450e-01 7.4773593521810566e-01 4.3969799687702227e-01 6.6646035714540017e-02 1.2795685462487150e-01 2.2003437237427442e-01 8.4747331086024791e-01 2.1183193399705813e-01 1.4273805152016061e+00 6.2251328231481529e-01 9.4723170798489929e-03 2.3251478594284392e-01 1.0781650616451285e-01 1.0648227409889030e-01 8.4924273736305411e-01 1.0332233472064873e+00 8.5756220744019640e-01 2.2884037035144819e-01 5.8877084392909074e-01 2.8334047833213677e-01 3.8871429347627667e-01 5.1690196660271059e-01 6.0778860109386312e-01 1.3975621687550921e-01 3.6345840715443067e-01 1.3056834662031445e+00 3.8739704156625432e-01 1.7540693079507235e+00 1.2253498053422778e+00 9.7927170347433634e-01 1.5561900739557679e+00 1.6914086862723998e+00 3.7877211326135962e-01 5.9866338983207712e-01 9.0067330003122459e-01 2.0138854516602850e-01 8.0245302443430699e-01 6.3004121601161511e-01 7.9958211909477817e-01 9.9449069757087094e-01 2.3699888054209331e-01 1.7513392050438414e-01 6.9561553094487838e-01 1.8558368645763581e+00 7.8364809270554350e-02 5.4076771932563750e-01 1.2293851255767438e+00 2.2081047099861553e-01 1.6219182052086687e+00 3.7548807352451985e-01 1.0039704389678434e+00 4.9945594165302823e-02 8.6991305761443161e-01 1.0152306890195803e-01 6.7591579431812276e-01 2.7214054824895438e-02 1.0930197201015468e+00 3.1486001222639615e-01 1.1142554744299966e+00 1.0642580182852850e-01 3.9227288096494878e-01 2.5123817754166672e-01 4.5924195403470441e-01 1.3595765751029174e+00 3.9945039416897477e-01 1.3127814683825920e+00 5.5819303568352696e-01 2.1744316943891728e-01 9.7342367680321940e-01 8.7877569885245005e-02 1.0139366522951461e+00 2.1191006832887799e-01 4.7173601481113714e-01 1.6847720761815710e+00 2.0744341712662617e-01 5.0086330445270244e-01 8.6759458289737523e-02 1.4659204900553355e+00 2.9179521124606045e-01 3.9411108705824149e-01 1.4004826874993164e+00 6.5543852147453441e-01 6.5109097559885742e-01 8.5527849488969443e-01 7.6495439824306544e-01 1.0988839941212452e+00 1.0018244985551623e+00 1.6612931944356850e+00 2.4894191669047588e-01 9.2832239910403680e-01 8.7778479012958777e-01 1.8278951613922229e-01 6.2852204949044943e-01 1.4435941481572190e+00 1.3503556304190228e-01 8.1836289439109278e-01 7.5395776384710500e-01 9.4346372433334058e-01 9.4902691970569764e-01 1.4788640753070514e+00 4.0969875338850020e-01 2.3288660432101443e-01 1.3436524077146075e-01 6.5482085275573332e-01 9.0726796174506519e-01 1.9703574931180456e-01 2.5842346422422691e-01 3.0658277758245794e-01 7.5824015993736921e-02 5.5672532870437400e-02 3.4663847852841079e-01 5.6698423696673883e-01 5.7244596888791658e-03 1.1470077645135104e+00 7.3773893858163908e-01 1.3847127628011275e+00 8.3430263096279189e-01 1.2065068086710729e+00 1.8552355905284096e-01 1.0784200874383396e+00 3.4373818980577819e-01 3.6808795904166647e-01 7.2017308046363016e-01 1.7592265062976922e+00 7.4396373302212493e-02 7.6253771550305061e-01 2.6818498987055217e-01 1.4693454063761948e+00 8.4198799485022424e-01 7.4926838737963034e-02 6.9302367637326767e-01 1.2883844307925446e-01 1.4477777752749190e+00 9.0664392219999002e-01 1.0795005855818406e-01 2.6742121144540115e-01 1.0946150623172444e+00 3.2657020147897314e-02 1.6974490793175270e+00 1.7405084585786823e-01 9.0301724280224893e-01 5.2133599718200685e-01 4.7068716301611507e-01 4.7454417429874285e-01 1.5847354744080180e-02 1.1399657677045708e-01 7.4328720194768394e-01 1.2568759112528405e-01 1.7451187143540206e+00 4.8697334285293919e-01 8.8294858298720202e-01 4.6111899180373006e-01 8.8039104013555458e-01 1.1399209207658236e+00 4.9280388830417932e-01 4.1183949242465773e-01 1.1794057804933518e+00 2.4371774091850507e-01 9.1155351064803769e-01 8.2257412347585857e-01 7.4426118280898890e-01 1.2650647906874812e+00 7.7104925356272710e-02 1.5675533348711379e+00 1.7987528850430801e+00 6.2147740215184211e-01 4.9094494797342719e-01 3.3260231433875403e-01 1.2205627818528488e+00 4.1208952307845759e-01 5.4206370238229484e-01 1.3040690021807215e+00 1.0635529586043244e-01 7.2748152992434156e-01 2.3454504768629822e-01 1.7515445276922315e-01 4.4836227284943586e-01 2.0453661134040685e-01 2.4200809793668062e-02 5.8156898761464326e-01 1.1451749309545503e+00 5.0115126835853774e-01 3.3813130849192163e-01 1.0565999682531892e+00 2.4745646160229279e-01 7.3330230167488053e-01 2.7649272051132356e-01 1.0028057816153502e+00 2.8227140393114504e-02 5.6659302975545089e-01 1.5485512316704225e-01 1.1553266541611500e+00 1.0272094237994915e+00 4.4906589920430245e-01 9.9132811886391736e-01 1.3911544827745959e-01 3.4579985351241543e-01 8.2896245982152084e-01 1.0746327984437474e+00 3.3621671328453251e-01 9.1222199799578019e-01 5.0234448773984153e-01 2.4987101543156728e-01 7.2192328044268261e-01 1.0435944297456365e+00 4.5071953604675319e-01 5.7029447283073753e-01 1.9851649441847352e-01 1.2903922925095253e+00 1.4199995217588328e+00 5.8498314971443943e-01 7.3635645055081411e-02 8.3235413582747741e-01 1.8091021727860998e-01 1.5470126619640298e-01 8.9246896479417726e-01 7.6537785566036565e-01 7.7754475981332360e-01 3.2448589459918331e-01 7.3377425538977348e-01 1.9002503670837685e+00 1.2137884382815733e+00 4.3316049701581261e-01 6.3213835860445400e-01 1.0073823773940456e+00 2.3252808140777748e-01 1.4286736674583964e-01 1.9022749484374307e-01 1.6956677230822478e-01 6.6126021715487826e-01 8.4222937072738158e-01 1.2062932227911562e-01 1.1173472444945367e+00 8.2998184725173263e-01 1.9798433623763201e+00 9.7718881065215213e-01 1.2334544104357028e+00 4.9188772073432041e-01 1.1674864940658887e+00 1.1475952621462162e+00 1.5409963650331715e+00 6.9528227639187901e-01 1.2697745262880117e-01 9.4004120199932717e-01 8.7894998907405153e-01 7.4337398830915136e-01 2.0344348749011407e-01 1.3106720437898813e+00 8.9943146133034357e-01 9.1130771165582902e-01 1.5022876274740669e+00 1.4248758464239097e-01 2.1267032277188846e-01 1.1674156370963389e+00 4.3207616161809093e-01 4.9345228943329622e-01 1.0183453916287655e+00 1.3444490705922656e+00 1.9492508554112078e+00 6.8979964555640350e-01 1.7757678197210387e+00 2.3440339327750884e-01 9.1902848034564255e-01 7.4970277090480475e-01 8.5896902494432537e-01 5.8425092652795985e-01 5.0316649920253087e-01 3.5104039676337767e-01 3.0247152152418000e-01 5.2364929395983872e-01 1.4514922940533366e+00 1.5855727357789886e+00 1.3548252690226348e+00 8.1709954171934596e-01 3.3559920955019257e-01 6.8386090241417907e-01 7.0794608844569407e-01 9.0904266546019616e-02 1.1100167017210127e+00 3.6620631249394436e-01 5.1591704361051283e-01 1.2378395780727618e+00 3.3843315905015192e-01 1.5365950076525592e-01 1.0003617035476837e+00 1.1918519317335612e+00 6.9105112443634154e-01 1.4808653416443751e+00 2.2054022865514816e-01 1.0092685773440824e+00 5.9758701935061720e-02 5.0743172950053728e-01 9.2657613776444170e-01 8.3845781131143160e-01 1.3479799203236489e+00 1.0682252798304812e+00 3.4654294985756989e-01 1.0222578885581209e-01 3.7401528410874135e-01 1.3156987410094270e+00 5.8352052919603759e-01 5.6177255433890982e-01 1.5199139207836561e+00 1.3362947110435126e+00 1.5034339027466781e-01 2.6412094423008825e-01 3.9740255602764774e-01 9.6660458391325965e-01 1.5486646975137264e-01 5.8471048358300548e-01 5.5308786516218000e-01 1.1469555711290256e+00 4.8947056626558072e-01 2.0867194545706674e-01 7.8215904271954262e-01 2.0582988031106927e-01 7.0559573329770697e-01 4.5416296630922370e-01 1.3759011632189244e+00 1.0065544539617575e+00 8.7810198351786675e-02 3.1947481281822954e-02 9.7109141548861433e-01 2.4770560331262353e-01 1.0662381828942782e+00 1.3815665317561012e+00 7.4926958826330070e-01 9.9821601901348911e-01 3.1104775402064272e-01 1.4989761591285815e+00 9.7787354722184516e-01 1.9617057063097525e+00 4.7252991701063862e-01 2.1650229966218176e-01 3.9465353393451374e-01 5.9210756116310814e-01 1.3408616538654001e+00 1.1569009850963867e+00 1.9207905956591859e-01 2.7168246840902766e-01 5.6947885709262314e-01 1.3856804235000559e+00 1.5632003062461491e-01 1.7948994312386746e-01 4.5556364888983814e-01 1.9702495655252985e+00 1.5234802486126471e+00 4.4393644502131679e-01 3.8812107290783293e-01 8.2129090627398760e-01 9.8843301641135051e-01 1.0911260099294080e+00 1.1817937241173170e-01 7.8592427660688680e-01 3.6556319365196777e-01 4.5085569132732672e-01 6.0718677812594235e-01 7.5943492585988803e-01 4.5239979748673415e-01 3.1950209038226973e-01 1.8217320733641975e+00 6.1624335805754260e-01 1.7916737777233654e-01 9.7096333602373841e-01 6.7270234968943743e-01 1.5338947085971806e+00 4.4465291482841340e-01 9.6733842884537768e-01 1.7408331359612916e+00 1.0016636135637071e+00 5.6216418811153845e-01 4.9711650325506740e-01 9.4676402524917519e-02 1.4947874155663028e+00 7.8215644260120287e-01 1.2197995877573224e+00 8.1477391074272609e-01 2.5746721619136786e-01 4.4653575749449020e-01 8.2209042824098733e-01 1.6227515155379337e+00 9.3833117371305064e-01 1.5088078471715831e+00 2.9834894348954694e-01 1.2990516654369664e+00 1.1120318990255598e+00 3.8759542604303621e-01 9.9996193792527488e-01 5.3215675769419257e-01 1.5088106400199497e+00 6.3599692938263408e-01 5.4877864940120213e-01 3.5893444261875646e-01 2.8013846788805419e-01 8.8707304560072586e-01 8.7018409650730322e-02 1.6337557931770932e+00 1.6946524431922398e+00 1.1207629602929794e+00 2.1246478310776482e-01 1.1005328414902111e+00 1.5598954032921473e+00 1.0632506464125886e+00 8.4355860756997791e-01 5.8226149637837865e-01 1.5882373040733688e-01 1.3108019580729811e+00 5.4689576351985902e-01 5.6118613696168818e-01 1.1767372663409494e+00 8.6683135333265149e-01 5.5475093029840106e-02 1.4526784651375912e+00 2.6450920612607082e-01 1.1609597110131595e+00 1.0294451918775092e+00 3.0008898206564166e-01 1.3076357513514645e+00 1.7629598406629582e-01 9.8098063051019493e-02 1.4182449112717028e+00 1.5180544003491092e+00 2.5766119376659530e-01 4.6751285972586665e-01 1.0831202080399245e+00 5.0254537028126167e-01 1.7957379215122604e-01 4.1334958835083341e-01 9.9162673353014785e-01 1.1591685998512422e+00 3.0799253418911143e-01 2.8715810207826131e-01 1.4753097783373863e+00 1.4739710709661105e+00 1.0222122873852786e+00 9.9279700430129447e-01 1.9833605713065233e-01 9.9592932545778190e-01 2.5455404890885447e-01 3.9317654787560774e-01 7.2410282321967356e-01 3.6853044668188573e-01 9.5493498135356195e-02 1.6193701722065903e+00 1.4570546611413340e+00 7.5660480515823503e-01 1.6660581242912742e+00 8.0538828158203485e-02 4.6584176093999252e-01 1.0656656960190262e-01 3.5690010205252132e-01 1.0008103511734701e+00 1.6537507551547673e-01 1.1117913077747048e+00 7.5722852199255608e-01 1.4619716078615106e+00 1.4158512995782551e+00 1.5675564261302481e+00 4.9826950218512378e-01 5.4385490387313307e-01 1.0628861402995624e+00 7.5225930739079142e-02 1.4029538909887109e+00 1.2340818355635954e+00 1.7789303602781081e+00 6.4020413897631823e-01 1.4389421459032484e-01 6.4348287167796636e-01 1.8248166044454310e+00 7.2069642979734183e-01 8.1864710897355630e-01 1.0157509555016739e+00 1.5474672597298664e+00 2.6029947214570970e-01 6.5399512817303385e-01 1.4409127786777540e+00 1.2635639693574345e+00 1.9301460060801170e+00 5.4953390694072324e-01 8.9208127627738262e-02 2.4876561818373538e-01 1.3397329641471729e+00 1.6287101640709247e+00 1.1439863984435208e+00 1.6313787953306064e-01 1.9361035788927412e+00 1.0601311196692753e+00 1.2608979981610455e+00 8.9744855338123020e-01 3.5662816658095581e-01 4.0676199926523804e-01 2.3112127073873895e-01 1.1710312151814182e+00 6.5160900973089986e-01 1.0186199939518095e+00 1.2437285476499813e+00 1.0075578507153287e+00 1.0608918780948731e+00 6.0902279800306214e-01 9.0840201429713796e-01 1.5110344134990084e+00 1.7076857369233092e-01 4.4047437126458377e-01 8.9273947729432557e-01 1.4912106217063530e+00 1.0787074128846146e+00 1.5241441956287144e-01 1.2242230153614916e-01 2.1730281566969034e-01 9.3728851090462376e-02 6.7856081695314319e-01 2.6594666062125408e-02 7.6718509830855774e-01 1.1981574066770428e+00 1.3435534345807909e+00 4.9779434366762654e-01 1.1067412525472133e+00 1.3642564027648940e+00 1.6049784355946701e+00 6.7526650661147525e-01 1.2563636416196537e+00 4.2049287674161884e-01 5.8918261582435316e-01 1.4642360553405289e+00 4.977737475220