<?xml version="1.0"?>
<VTKFile type="UnstructuredGrid"  byte_order="LittleEndian">
<UnstructuredGrid>
<Piece NumberOfPoints="750" NumberOfCells=" 1500">
<Points>
<DataArray type="Float32" NumberOfComponents="3" format="ascii">
30.142336 3.018485 0.000000 0.203597 -3.726427 0.000000 32.639839 -3.726427 0.000000 0.203597 4.994903 0.000000 32.639839 4.994903 0.000000 30.139393 3.077458 0.000000 30.130592 3.135846 0.000000 30.116022 3.193068 0.000000 30.095827 3.248554 0.000000 30.070206 3.301754 0.000000 30.039417 3.352138 0.000000 30.003765 3.399207 0.000000 29.963602 3.442491 0.000000 29.919329 3.481562 0.000000 29.871387 3.516031 0.000000 29.820250 3.545554 0.000000 29.766428 3.569840 0.000000 29.710455 3.588645 0.000000 29.652889 3.601785 0.000000 29.594299 3.609127 0.000000 29.535271 3.610599 0.000000 29.476389 3.606186 0.000000 29.418238 3.595933 0.000000 29.361399 3.579941 0.000000 29.306433 3.558368 0.000000 29.253887 3.531430 0.000000 29.204287 3.499394 0.000000 29.158121 3.462579 0.000000 29.115852 3.421350 0.000000 29.077896 3.376117 0.000000 29.044634 3.327330 0.000000 29.016396 3.275473 0.000000 28.993460 3.221063 0.000000 28.976055 3.164639 0.000000 28.964354 3.106762 0.000000 28.958475 3.048008 0.000000 28.958475 2.988961 0.000000 28.964354 2.930207 0.000000 28.976055 2.872330 0.000000 28.993460 2.815907 0.000000 29.016396 2.761496 0.000000 29.044634 2.709639 0.000000 29.077896 2.660852 0.000000 29.115852 2.615619 0.000000 29.158121 2.574390 0.000000 29.204287 2.537575 0.000000 29.253887 2.505539 0.000000 29.306433 2.478601 0.000000 29.361399 2.457029 0.000000 29.418238 2.441036 0.000000 29.476389 2.430783 0.000000 29.535271 2.426370 0.000000 29.594299 2.427842 0.000000 29.652889 2.435184 0.000000 29.710455 2.448324 0.000000 29.766428 2.467129 0.000000 29.820250 2.491415 0.000000 29.871387 2.520938 0.000000 29.919329 2.555407 0.000000 29.963602 2.594478 0.000000 30.003765 2.637763 0.000000 30.039417 2.684831 0.000000 30.070206 2.735215 0.000000 30.095827 2.788415 0.000000 30.116022 2.843902 0.000000 30.130592 2.901123 0.000000 30.139393 2.959511 0.000000 1.186514 -3.726427 0.000000 2.169430 -3.726427 0.000000 3.152347 -3.726427 0.000000 4.135263 -3.726427 0.000000 5.118179 -3.726427 0.000000 6.101096 -3.726427 0.000000 7.084012 -3.726427 0.000000 8.066929 -3.726427 0.000000 9.049845 -3.726427 0.000000 10.032762 -3.726427 0.000000 11.015677 -3.726427 0.000000 11.998594 -3.726427 0.000000 12.981511 -3.726427 0.000000 13.964427 -3.726427 0.000000 14.947344 -3.726427 0.000000 15.930260 -3.726427 0.000000 16.913176 -3.726427 0.000000 17.896093 -3.726427 0.000000 18.879009 -3.726427 0.000000 19.861925 -3.726427 0.000000 20.844843 -3.726427 0.000000 21.827759 -3.726427 0.000000 22.810675 -3.726427 0.000000 23.793591 -3.726427 0.000000 24.776508 -3.726427 0.000000 25.759424 -3.726427 0.000000 26.742340 -3.726427 0.000000 27.725258 -3.726427 0.000000 28.708174 -3.726427 0.000000 29.691090 -3.726427 0.000000 30.674006 -3.726427 0.000000 31.656923 -3.726427 0.000000 0.203597 4.025866 0.000000 0.203597 3.056829 0.000000 0.203597 2.087793 0.000000 0.203597 1.118756 0.000000 0.203597 0.149720 0.000000 0.203597 -0.819317 0.000000 0.203597 -1.788354 0.000000 0.203597 -2.757390 0.000000 32.639839 -2.757390 0.000000 32.639839 -1.788354 0.000000 32.639839 -0.819317 0.000000 32.639839 0.149720 0.000000 32.639839 1.118756 0.000000 32.639839 2.087793 0.000000 32.639839 3.056829 0.000000 32.639839 4.025866 0.000000 31.656923 4.994903 0.000000 30.674006 4.994903 0.000000 29.691090 4.994903 0.000000 28.708174 4.994903 0.000000 27.725258 4.994903 0.000000 26.742340 4.994903 0.000000 25.759424 4.994903 0.000000 24.776508 4.994903 0.000000 23.793591 4.994903 0.000000 22.810675 4.994903 0.000000 21.827759 4.994903 0.000000 20.844843 4.994903 0.000000 19.861925 4.994903 0.000000 18.879009 4.994903 0.000000 17.896093 4.994903 0.000000 16.913176 4.994903 0.000000 15.930260 4.994903 0.000000 14.947344 4.994903 0.000000 13.964427 4.994903 0.000000 12.981511 4.994903 0.000000 11.998594 4.994903 0.000000 11.015677 4.994903 0.000000 10.032762 4.994903 0.000000 9.049845 4.994903 0.000000 8.066929 4.994903 0.000000 7.084012 4.994903 0.000000 6.101096 4.994903 0.000000 5.118179 4.994903 0.000000 4.135263 4.994903 0.000000 3.152347 4.994903 0.000000 2.169430 4.994903 0.000000 1.186514 4.994903 0.000000 25.238331 -2.911971 0.000000 28.158354 -2.929589 0.000000 0.953553 0.803501 0.000000 17.458212 4.218123 0.000000 22.319216 4.143672 0.000000 6.592554 -2.875196 0.000000 9.521732 -2.867656 0.000000 12.490052 -2.875196 0.000000 20.346361 -2.973173 0.000000 15.438802 -2.875196 0.000000 31.981075 -0.409158 0.000000 25.298281 4.124622 0.000000 14.556552 4.121650 0.000000 11.388232 4.013082 0.000000 8.543838 4.178611 0.000000 5.588962 4.191067 0.000000 3.642328 -2.875368 0.000000 23.348021 -2.872415 0.000000 20.353384 4.143672 0.000000 17.404634 -2.895958 0.000000 3.675883 4.162782 0.000000 27.233799 4.143672 0.000000 31.855322 1.494688 0.000000 30.184566 -2.857360 0.000000 0.999017 -1.249393 0.000000 1.081743 2.468080 0.000000 31.837099 3.600355 0.000000 31.669741 -2.260348 0.000000 1.683031 -2.904244 0.000000 1.677972 4.143672 0.000000 31.991644 2.587411 0.000000 31.237799 3.121025 0.000000 30.184492 3.119494 0.000000 30.191223 2.981148 0.000000 30.151814 4.205483 0.000000 30.104479 3.357237 0.000000 30.041162 3.463877 0.000000 29.926260 3.554490 0.000000 29.815790 3.607589 0.000000 29.533064 4.357351 0.000000 29.369455 3.646151 0.000000 29.521318 3.664542 0.000000 29.629953 3.656195 0.000000 28.653767 4.164312 0.000000 29.042339 3.438351 0.000000 29.133118 3.533023 0.000000 29.245258 3.605563 0.000000 30.966356 4.266455 0.000000 30.655773 3.791854 0.000000 31.863111 0.798644 0.000000 31.103374 0.205642 0.000000 31.240421 1.201550 0.000000 31.153786 1.797520 0.000000 30.129089 2.739628 0.000000 30.722784 1.526953 0.000000 30.025366 2.579583 0.000000 30.730507 1.910829 0.000000 30.332088 1.608936 0.000000 29.814930 2.431536 0.000000 30.383310 1.256845 0.000000 30.057402 1.429475 0.000000 30.064165 1.079678 0.000000 29.713623 1.283642 0.000000 29.751051 0.913757 0.000000 29.419418 1.085520 0.000000 29.500788 2.374929 0.000000 29.432743 0.719574 0.000000 29.112280 0.917714 0.000000 29.086109 0.512687 0.000000 28.714895 0.743472 0.000000 29.629999 2.378713 0.000000 28.684780 0.272786 0.000000 28.236181 0.500684 0.000000 28.348812 1.098287 0.000000 27.733162 0.889246 0.000000 27.687319 0.209529 0.000000 27.112280 0.648110 0.000000 29.113962 1.300016 0.000000 29.313255 2.417821 0.000000 29.470003 0.306696 0.000000 27.821329 1.480187 0.000000 27.057989 -0.077113 0.000000 26.461489 0.350937 0.000000 26.534113 1.117862 0.000000 25.841536 0.810154 0.000000 25.741730 0.034598 0.000000 25.084810 0.504617 0.000000 29.788309 1.601834 0.000000 24.992258 -0.268632 0.000000 24.285843 0.210214 0.000000 24.409298 1.040210 0.000000 23.592281 0.715302 0.000000 23.471588 -0.149484 0.000000 22.753914 0.371526 0.000000 22.634481 -0.519468 0.000000 21.894997 0.012909 0.000000 22.016689 0.938615 0.000000 21.141783 0.579373 0.000000 27.664604 -0.494801 0.000000 27.015055 -0.810764 0.000000 23.716499 1.600057 0.000000 30.304733 2.064994 0.000000 30.539503 2.191940 0.000000 25.945698 1.592897 0.000000 30.093964 0.614680 0.000000 21.273529 1.510516 0.000000 20.385424 1.158414 0.000000 20.260431 0.207372 0.000000 19.495144 0.790638 0.000000 19.372253 -0.167408 0.000000 18.601189 0.419924 0.000000 18.726620 1.381559 0.000000 17.828554 1.010687 0.000000 17.702564 0.044738 0.000000 16.927141 0.636982 0.000000 16.801424 -0.331753 0.000000 16.024193 0.262192 0.000000 16.150869 1.232163 0.000000 15.246505 0.857393 0.000000 15.119621 -0.114171 0.000000 14.340995 0.481566 0.000000 14.214146 -0.490962 0.000000 13.434947 0.105391 0.000000 13.562101 1.078363 0.000000 12.655489 0.702159 0.000000 12.528349 -0.271380 0.000000 11.748597 0.325557 0.000000 11.629919 -0.617268 0.000000 10.842852 -0.046060 0.000000 10.968946 0.923718 0.000000 10.061402 0.546035 0.000000 10.188732 1.520484 0.000000 9.281217 1.143476 0.000000 9.153915 0.169072 0.000000 8.373678 0.766505 0.000000 8.246334 -0.207836 0.000000 7.466088 0.389703 0.000000 7.593447 1.363981 0.000000 6.686147 0.986708 0.000000 6.558722 0.012871 0.000000 5.779188 0.609640 0.000000 5.651961 -0.363293 0.000000 4.873302 0.233467 0.000000 5.000347 1.205259 0.000000 4.094898 0.828965 0.000000 3.956733 -0.139544 0.000000 12.782837 1.675691 0.000000 6.813376 1.960964 0.000000 15.373625 1.828805 0.000000 21.790615 -0.917651 0.000000 4.236525 1.765339 0.000000 3.320317 1.419206 0.000000 28.321156 1.583715 0.000000 29.149321 2.516003 0.000000 27.988562 1.973329 0.000000 28.310169 2.194594 0.000000 28.968195 2.765527 0.000000 29.019489 2.660599 0.000000 28.055618 2.449419 0.000000 28.912533 3.154665 0.000000 28.943857 3.267392 0.000000 28.911121 3.024261 0.000000 28.926758 2.885107 0.000000 27.487051 2.309448 0.000000 30.323652 2.258126 0.000000 30.544220 2.457759 0.000000 30.133183 2.121951 0.000000 30.780399 2.398097 0.000000 30.620880 2.702292 0.000000 17.955225 1.976327 0.000000 18.831577 2.314310 0.000000 28.389383 2.675237 0.000000 28.066029 2.877235 0.000000 28.397049 2.983509 0.000000 28.163805 3.235822 0.000000 27.728682 3.124928 0.000000 28.445839 3.384822 0.000000 28.759760 1.897585 0.000000 9.408545 2.117827 0.000000 10.795786 -0.992397 0.000000 28.206038 3.578185 0.000000 27.643318 -1.220519 0.000000 26.965216 -1.581829 0.000000 28.353735 -0.785037 0.000000 28.690435 2.406367 0.000000 5.126374 2.176828 0.000000 9.026695 -0.805410 0.000000 8.119013 -1.182185 0.000000 11.096194 1.897206 0.000000 13.689503 2.051244 0.000000 12.910175 2.649266 0.000000 20.141190 -0.750641 0.000000 19.265795 -1.109317 0.000000 16.278202 2.201915 0.000000 20.471531 2.240976 0.000000 17.574726 -0.851251 0.000000 30.104399 2.353043 0.000000 29.926647 2.494627 0.000000 22.173092 1.797826 0.000000 7.720751 2.338298 0.000000 16.586403 -1.289188 0.000000 24.53489
[...]
<CellData Scalars="Label">
<DataArray type="Int32" Name="Label" format="ascii">
1 1 1 1 1 1 1 1 1 1 1 1 1 1 1 1 1 1 1 1 1 1 1 1 1 1 1 1 1 1 1 1 1 1 1 1 1 1 1 1 1 1 1 1 1 1 1 1 1 1 1 1 1 1 1 1 1 1 1 1 1 1 1 1 1 1 1 1 1 1 1 1 1 1 1 1 1 1 1 1 1 1 1 1 1 1 1 1 1 1 1 1 1 1 1 1 1 1 1 1 1 1 1 1 1 1 1 1 1 1 1 1 1 1 1 1 1 1 1 1 1 1 1 1 1 1 1 1 1 1 1 1 1 1 1 1 1 1 1 1 1 1 1 1 1 1 1 1 1 1 1 1 1 1 1 1 1 1 1 1 1 1 1 1 1 1 1 1 1 1 1 1 1 1 1 1 1 1 1 1 1 1 1 1 1 1 1 1 1 1 1 1 1 1 1 1 1 1 1 1 1 1 1 1 1 1 1 1 1 1 1 1 1 1 1 1 1 1 1 1 1 1 1 1 1 1 1 1 1 1 1 1 1 1 1 1 1 1 1 1 1 1 1 1 1 1 1 1 1 1 1 1 1 1 1 1 1 1 1 1 1 1 1 1 1 1 1 1 1 1 1 1 1 1 1 1 1 1 1 1 1 1 1 1 1 1 1 1 1 1 1 1 1 1 1 1 1 1 1 1 1 1 1 1 1 1 1 1 1 1 1 1 1 1 1 1 1 1 1 1 1 1 1 1 1 1 1 1 1 1 1 1 1 1 1 1 1 1 1 1 1 1 1 1 1 1 1 1 1 1 1 1 1 1 1 1 1 1 1 1 1 1 1 1 1 1 1 1 1 1 1 1 1 1 1 1 1 1 1 1 1 1 1 1 1 1 1 1 1 1 1 1 1 1 1 1 1 1 1 1 1 1 1 1 1 1 1 1 1 1 1 1 1 1 1 1 1 1 1 1 1 1 1 1 1 1 1 1 1 1 1 1 1 1 1 1 1 1 1 1 1 1 1 1 1 1 1 1 1 1 1 1 1 1 1 1 1 1 1 1 1 1 1 1 1 1 1 1 1 1 1 1 1 1 1 1 1 1 1 1 1 1 1 1 1 1 1 1 1 1 1 1 1 1 1 1 1 1 1 1 1 1 1 1 1 1 1 1 1 1 1 1 1 1 1 1 1 1 1 1 1 1 1 1 1 1 1 1 1 1 1 1 1 1 1 1 1 1 1 1 1 1 1 1 1 1 1 1 1 1 1 1 1 1 1 1 1 1 1 1 1 1 1 1 1 1 1 1 1 1 1 1 1 1 1 1 1 1 1 1 1 1 1 1 1 1 1 1 1 1 1 1 1 1 1 1 1 1 1 1 1 1 1 1 1 1 1 1 1 1 1 1 1 1 1 1 1 1 1 1 1 1 1 1 1 1 1 1 1 1 1 1 1 1 1 1 1 1 1 1 1 1 1 1 1 1 1 1 1 1 1 1 1 1 1 1 1 1 1 1 1 1 1 1 1 1 1 1 1 1 1 1 1 1 1 1 1 1 1 1 1 1 1 1 1 1 1 1 1 1 1 1 1 1 1 1 1 1 1 1 1 1 1 1 1 1 1 1 1 1 1 1 1 1 1 1 1 1 1 1 1 1 1 1 1 1 1 1 1 1 1 1 1 1 1 1 1 1 1 1 1 1 1 1 1 1 1 1 1 1 1 1 1 1 1 1 1 1 1 1 1 1 1 1 1 1 1 1 1 1 1 1 1 1 1 1 1 1 1 1 1 1 1 1 1 1 1 1 1 1 1 1 1 1 1 1 1 1 1 1 1 1 1 1 1 1 1 1 1 1 1 1 1 1 1 1 1 1 1 1 1 1 1 1 1 1 1 1 1 1 1 1 1 1 1 1 1 1 1 1 1 1 1 1 1 1 1 1 1 1 1 1 1 1 1 1 1 1 1 1 1 1 1 1 1 1 1 1 1 1 1 1 1 1 1 1 1 1 1 1 1 1 1 1 1 1 1 1 1 1 1 1 1 1 1 1 1 1 1 1 1 1 1 1 1 1 1 1 1 1 1 1 1 1 1 1 1 1 1 1 1 1 1 1 1 1 1 1 1 1 1 1 1 1 1 1 1 1 1 1 1 1 1 1 1 1 1 1 1 1 1 1 1 1 1 1 1 1 1 1 1 1 1 1 1 1 1 1 1 1 1 1 1 1 1 1 1 1 1 1 1 1 1 1 1 1 1 1 1 1 1 1 1 1 1 1 1 1 1 1 1 1 1 1 1 1 1 1 1 1 1 1 1 1 1 1 1 1 1 1 1 1 1 1 1 1 1 1 1 1 1 1 1 1 1 1 1 1 1 1 1 1 1 1 1 1 1 1 1 1 1 1 1 1 1 1 1 1 1 1 1 1 1 1 1 1 1 1 1 1 1 1 1 1 1 1 1 1 1 1 1 1 1 1 1 1 1 1 1 1 1 1 1 1 1 1 1 1 1 1 1 1 1 1 1 1 1 1 1 1 1 1 1 1 1 1 1 1 1 1 1 1 1 1 1 1 1 1 1 1 1 1 1 1 1 1 1 1 1 1 1 1 1 1 1 1 1 1 1 1 1 1 1 1 1 1 1 1 1 1 1 1 1 1 1 1 1 1 1 1 1 1 1 1 1 1 1 1 1 1 1 1 1 1 1 1 1 1 1 1 1 1 1 1 1 1 1 1 1 1 1 1 1 1 1 1 1 1 1 1 1 1 1 1 1 1 1 1 1 1 1 1 1 1 1 1 1 1 1 1 1 1 1 1 1 1 1 1 1 1 1 1 1 1 1 1 1 1 1 1 1 1 1 1 1 1 1 1 1 1 1 1 1 1 1 1 1 1 1 1 1 1 1 1 1 1 1 1 1 1 1 1 1 1 1 1 1 1 1 1 1 1 1 1 1 1 1 1 1 1 1 1 1 1 1 1 1 1 1 1 1 1 1 1 1 1 1 1 1 1 1 1 1 1 1 1 1 1 1 1 1 1 1 1 1 1 1 1 1 1 1 1 1 1 1 1 1 1 1 1 1 1 1 5 5 5 5 5 5 5 5 5 5 5 5 5 5 5 5 5 5 5 5 5 5 5 5 5 5 5 5 5 5 5 5 5 5 5 5 5 5 5 5 5 5 5 5 5 5 5 5 5 5 5 5 5 5 5 5 5 5 5 5 5 5 5 4 4 4 4 4 4 4 4 4 4 4 4 4 4 4 4 4 4 4 4 4 4 4 4 4 4 4 4 4 4 4 4 4 2 2 2 2 2 2 2 2 2 3 3 3 3 3 3 3 3 3 4 4 4 4 4 4 4 4 4 4 4 4 4 4 4 4 4 4 4 4 4 4 4 4 4 4 4 4 4 4 4 4 4 
</DataArray>
<DataArray type="Float64" Name="u" NumberOfComponents="1" format="ascii">
9.9287479948542356e-01 1.5490396262794626e-01 5.9990321146316672e-01 1.5851820965652834e+00 2.8830678731402781e-01 8.2657285206394204e-02 4.4085609948154159e-01 7.0816547632001703e-01 1.2006741655635431e+00 3.8920613408707361e-01 1.0049457193050872e+00 5.5891095378976741e-01 8.9958677276109109e-02 1.0051961448893239e+00 1.5764482046447195e-01 8.3912020499195283e-01 3.6041891867480269e-01 3.8071969108047909e-01 5.9449727093295957e-01 1.8766943885258841e-01 6.5473325430091078e-01 7.0642623752388767e-01 9.2031546792852442e-02 4.4458575844866399e-01 1.0011849243126885e+00 1.0000220856487698e+00 3.7508688259620571e-01 3.7315186139891110e-01 2.2505029536637683e-01 1.7757694959495515e-01 3.2178638733338871e-02 2.2969716929228778e-01 1.2151642481232269e-01 1.9175823092268968e-01 6.6659220162217570e-01 9.9162183277952209e-01 5.2122191011342833e-01 9.8060704734220727e-01 8.5827901185610989e-01 2.4357632145321811e-01 1.0000444384031040e+00 1.0000930421041894e+00 3.4610022232939985e-01 1.4064090624999808e+00 1.0116939903848978e+00 1.0040167266250906e+00 1.0001217495666044e+00 1.4399122638157205e+00 1.4102744336870121e-01 8.9771467642658420e-01 1.0045263466800993e+00 1.5498292397780175e-01 2.7399267021888962e-01 7.3532024738744400e-02 8.4191983112818214e-01 1.4912370149076191e+00 8.3014052446637072e-03 4.0664184336034415e-02 2.9283953594541062e-01 1.4698232037966097e+00 1.6564067220647962e+00 4.3237650398936733e-01 5.0386941929696805e-01 1.2693237629854546e+00 6.2992696685890415e-02 1.6451215367158936e+00 3.1293073972329349e-01 2.4660680828825821e-01 8.1041728494969600e-01 2.2176276211014388e-02 1.0704433081188462e+00 2.3004680904083530e-01 1.0010106895327657e+00 9.7927316081942806e-01 2.6120996871029725e-02 1.0217156415890960e+00 1.0189168090939447e+00 1.0967439881728798e-01 2.0358190108506402e-01 1.0013014327455994e-01 5.5826110120109929e-01 7.2148363151813233e-01 2.4924783748630058e-01 3.7555484923878701e-01 2.1496137173170685e-01 9.7616472600278323e-02 8.4326617883940425e-01 2.7005707714413820e-02 8.3033254711336446e-01 9.1767107829270306e-02 9.5277862514399936e-01 1.5682292120556420e+00 1.0992276873090865e+00 1.0140660806613666e+00 3.4705351370759341e-01 3.0393714990791587e-01 9.9917952109590136e-01 8.7860317840164959e-01 9.8481910665780281e-01 4.4358375502660130e-01 7.4009050401046061e-01 1.0003158272295365e+00 6.0079737758624641e-01 2.4031872452072930e-01 1.3281549293349220e+00 3.0848669172941401e-01 1.2286861850423070e+00 9.9280409615283749e-01 6.9945740860086528e-04 2.7798402749403611e-01 3.2545235598869510e-01 6.8336079876054356e-01 1.7620607226638621e-01 5.8362896289088428e-01 1.2390434343915371e+00 1.5437827772547158e-01 1.2495775050838676e+00 1.0612148440745428e-01 5.8205030140413427e-01 1.4756953495321108e+00 2.0203461385231748e-02 1.3394423322684590e+00 2.2655694210137289e-01 8.5468152561590527e-01 4.5582900430590778e-01 1.0619307768377051e+00 5.6547851897468096e-02 2.6280779580612662e-01 9.8490055197383763e-01 1.2375946480679025e+00 1.7017184944319894e+00 8.7930417039705944e-01 9.7479126535272398e-01 6.3784161717284937e-01 1.7190517331335509e-01 1.2345139257735458e+00 9.0110895848630612e-01 1.0000054588366056e+00 3.6697745521200342e-01 9.9889970291080044e-01 9.8557697359133112e-01 4.5200325375504991e-01 2.0661097480156054e-01 9.9564889644589760e-01 8.7739363218933697e-01 6.5804833494005133e-01 3.1640965244898778e-01 1.5416372635623208e+00 8.5260841833202206e-01 9.5677794780546188e-01 1.6631557067565410e+00 1.4254636835137321e-01 1.0099999033730480e+00 1.9135202217642883e-01 5.3113068924597584e-01 9.1678824291792860e-01 3.3652427708088392e-02 2.5396630970740103e-01 9.7136747220964370e-01 1.2899754460192090e+00 4.5938377942694897e-01 9.8405854890364863e-01 1.1999522777484573e+00 1.4885122777193203e+00 1.0981177371562481e-01 4.2787076649893052e-01 1.0321817086833884e+00 1.0014987209197863e+00 3.9548846176869867e-01 1.0412927597124372e-01 1.7065327953654088e+00 8.8939995859570864e-01 1.2272733136712652e+00 2.4696932730001325e-01 6.7912933380346741e-01 1.0042226836755714e+00 1.1248564829974899e+00 8.2991887497219308e-01 2.9591384811031346e-01 5.1111709383846327e-01 3.8065689463016039e-01 1.7844333172580757e+00 1.0000962669793236e+00 3.7762163495251305e-01 9.4323735013044985e-01 7.9606311740472735e-01 9.0880369878154210e-01 1.5323471390881442e+00 8.4363897924724832e-02 1.9956029317932888e-01 1.3446703357806600e+00 4.9083612977222718e-01 4.9731092435945556e-01 6.6327270952084882e-01 1.1972555725848659e+00 1.9620247661002876e-01 2.7581026897446997e-01 7.2857375925765999e-01 1.0032250211554721e+00 1.4384064914381383e+00 4.7520664645455307e-01 3.5442024331607647e-01 4.2143977786769404e-01 9.9998839732136413e-01 1.5962521609079694e-01 1.6671311846125827e+00 1.0004570718796593e+00 3.0195388429336389e-01 1.3907027109177690e+00 5.0621232297216809e-02 1.3796202452610745e-01 5.8324869791879466e-02 9.9480539243723176e-01 9.9998892703473452e-01 9.5759435815768582e-02 3.4482033984211286e-01 1.1228136381189704e+00 7.9507817558763128e-01 8.9353899423160366e-01 2.8581370622650004e-01 2.6932519029982838e-01 1.2549712894058531e+00 1.0044815921244941e+00 3.1220603953660098e-01 5.3951216768922741e-02 2.7105083272432140e-01 8.3258477680494558e-01 1.1786864388928433e+00 1.1605967050162087e+00 6.3499635349468608e-01 2.5857310303802494e-01 1.3228507988853997e+00 1.7110737097791415e+00 1.5950728764663358e+00 2.8376901836592139e-02 1.0031136304199619e+00 1.5084849975936225e+00 9.9970768550330547e-01 1.2127414985165510e+00 1.0000872445897988e+00 2.2245740235294637e-01 4.2560936950246853e-01 2.3886247153219867e-02 4.9434687360512086e-01 9.0406003623492159e-01 7.6072966850612744e-01 1.4487671129601689e+00 2.6764617791703899e-01 2.9726101772123087e-01 1.7359599378316939e+00 1.5468503593161977e+00 1.2543521808337272e+00 1.0288677761364327e+00 4.8501174146330084e-01 1.4211541700089586e-01 3.8021851915388927e-01 1.4006043820360758e+00 9.9977742960094884e-01 1.5973092502634050e+00 2.3857894954296072e-01 1.3072431130301396e+00 9.9957840261209741e-01 1.2540524489220402e+00 1.3814555932168142e+00 8.2224662831923667e-01 1.3540792551467673e-01 1.2937928362870212e+00 9.9953440778353231e-01 1.0784569774495298e+00 1.7073215940138919e-01 2.3807382256499382e-01 1.0159650367689110e+00 2.8636911437440049e-01 1.7257361873821191e+00 8.7742889742702224e-02 3.6797255469264673e-01 1.1757125621779743e+00 1.1520240258397072e+00 9.8445880224896504e-02 3.2134252922117218e-01 1.3568312264142809e-01 7.2767884688677387e-01 9.9881348268788250e-01 1.4786767490327171e+00 2.1777913497897999e-01 1.1840790997619410e+00 1.0847501724774127e+00 2.6091421734047460e-01 1.1971243797883822e+00 1.0685734058176881e-01 5.0332429759747374e-02 3.2854951514043960e-02 1.8074501285970619e+00 4.6590490110727878e-01 9.2941378569516897e-01 9.8969828055877807e-01 9.9997690984698839e-01 1.1308607488794113e+00 9.9933931654234920e-01 1.4478084378324170e+00 9.9681611022874816e-01 8.3597895882041573e-01 5.1598706965618979e-01 1.3821838557743629e+00 7.5540374454237336e-01 1.0028880639514686e+00 4.0922778448964120e-01 2.2373321081608827e-01 4.3258595394553834e-01 1.3028434349793727e+00 1.0014473753411578e-01 1.7709867407414572e+00 1.5426979718021402e-01 1.1627423966524464e-01 7.8772331183330246e-01 9.3859711183042482e-01 1.3649379110734587e+00 4.4586002191190061e-01 7.3305514354074530e-01 9.9598374412870549e-01 1.2908383742088989e+00 9.9992530785083023e-01 4.7429408938369938e-01 1.9027675518514747e-01 1.0412420007880256e+00 1.0031603311041044e+00 1.0905027504965630e+00 9.1752007309155725e-02 6.9954839922002943e-01 7.3957059778617884e-01 1.7333690807234290e+00 5.2058586698618126e-01 9.1667595275195557e-01 1.8924425252063601e-01 3.4512751069177769e-02 1.0752605931343711e+00 6.0511780793481451e-01 1.0002145753387113e+00 1.0003724628658532e+00 1.5510126761134821e+00 1.0003977227287022e+00 1.0010646063776787e+00 1.0008726092971405e+00 1.4017383403607164e+00 9.9959792632340894e-01 1.0000517396853237e+00 1.0002525092030146e+00 1.0001754809505210e+00 1.0015713565072875e+00 9.9993522673051394e-01 9.9930848371329417e-01 1.0002797838008441e+00 9.5404022556608170e-01 1.0001883941404874e+00 9.9990441035123379e-01 1.0001121604775938e+00 9.9676633884178578e-01 9.9988810166555919e-01 9.9918229394420233e-01 9.9981074817815396e-01 1.0013219622480920e+00 1.0629031873687644e+00 9.9981376166227021e-01 6.7393369209207424e-02 1.0002109641508259e+00 8.9338343764042771e-01 1.0006823752030873e+00 9.9984568034407550e-01 6.7959193917336647e-01 9.9996121906190616e-01 1.2614116316019715e+00 1.0665160201485815e+00 1.0777896305292036e+00 1.0005389055086635e+00 1.0000623030966507e+00 9.9935424931005179e-01 1.0005632096281445e+00 1.7591884608966888e+00 1.0000889718287169e+00 9.9995006148651366e-01 1.0002882359494445e+00 9.9945755654117763e-01 1.0000165638051892e+00 9.9997998685627487e-01 1.0351728591003972e+00 1.0003015315287889e+00 1.0020789178129972e+00 9.9893629226781977e-01 1.0004180690489708e+00 9.9971001739233345e-01 1.0004727391751267e+00 9.9931119149782166e-01 9.2171748408933696e-01 9.3269935529888892e-01 1.0013592894144296e+00 9.9881404617238767e-01 9.8355354183932142e-01 9.9981719301420513e-01 9.9976766176127840e-01 9.9975737691186217e-01 1.0001318157523671e+00 9.9900092774595528e-01 9.9975595806182660e-01 9.9923129461705251e-01 9.9995508551591061e-01 1.0034932184926064e+00 9.9935974672377947e-01 9.4545426585760151e-01 9.9978469283781946e-01 1.0015647096022500e+00 9.9351426685715682e-01 1.0027915255073723e+00 9.9912453638514331e-01 1.0075705339011738e+00 1.0111392596444202e+00 1.0096970935993186e+00 1.0059643821826079e+00 1.0081799537235936e+00 9.9978205828806133e-01 1.0003630340262428e+00 1.0007451446120230e+00 9.9778585416263654e-01 1.0071033943798702e+00 8.6312762980330948e-01 1.0583223770752972e+00 1.1348500845280842e+00 8.2007297995531758e-01 7.9782120517036847e-01 1.0436486472923165e+00 7.6626782789987380e-01 9.7555607220933327e-01 9.9043524918163550e-01 9.9624771373667098e-01 9.9868318487304564e-01 1.0325253194809338e+00 1.0371286853993240e+00 9.4100391438655451e-01 1.0019093516932323e+00 1.0051690634631472e+00 1.0131848283200999e+00 8.4528812853138369e-01 1.0497440683763550e+00 1.0032289832534134e+00 9.9771241375103159e-01 1.0013305406420625e+00 9.9838095137251848e-01 9.9917271802258578e-01 1.0017272317775254e+00 1.0003434786898795e+00 9.9957105258303025e-01 1.0025650604102725e+00 9.9779937215533310e-01 1.0014401525566439e+00 9.9809561010180980e-01 9.9668384732170978e-01 9.9693797552482488e-01 1.0000270811650560e+00 9.9922908844783320e-01 1.0026628712159815e+00 9.9410644379372326e-01 9.9910403210986920e-01 9.9818639214486626e-01 9.9791464424296494e-01 9.9758808694515233e-01 1.0005362029277438e+00 9.9502141536867550e-01 9.9528953669926090e-01 9.9991110916633930e-01 1.0028155696708398e+00 9.9643588241036274e-01 9.8622624191814046e-01 9.9860034322836588e-01 9.9873577681534143e-01 9.9708976002181149e-01 1.0017183993145249e+00 9.9806111616182758e-01 9.9910491318065942e-01 9.9173574203781345e-01 1.0010658085568429e+00 9.9889519911010871e-01 1.0004278800813453e+00 1.0055326486118172e+00 9.9943056799025021e-01 1.0035412080680972e+00 9.8806089391962604e-01 1.0007400027954112e+00 9.8895761328132670e-01 1.0007658088383828e+00 1.0024441774794992e+00 9.9246220745215796e-01 1.0025171902825625e+00 9.9444075176066371e-01 9.9975305765718314e-01 9.9712545826369836e-01 9.8512393384426278e-01 1.0032886422132550e+00 9.9724806955532252e-01 1.0000483337879085e+00 9.8687303814895788e-01 9.9940629715316431e-01 1.0017303040293433e+00 1.0010498207896050e+00 1.0006298129129407e+00 9.9575278682147406e-01 9.9924427853192932e-01 1.0005747879036506e+00 1.0069306273934380e+00 9.9758553420199414e-01 1.0013413459125209e+00 9.9446174758086858e-01 9.9274260733591124e-01 9.9130356956533039e-01 1.0188586415819416e+00 1.0005729054695180e+00 1.0012407202662930e+00 1.0110633418376822e+00 1.0055076737225046e+00 1.0070056060874431e+00 9.9523355117840673e-01 1.0045700186071513e+00 1.0008195094181089e+00 1.0180689633973470e+00 1.0133182226404989e+00 1.0108852680097278e+00 1.0002478436773061e+00 9.8020171566901482e-01 9.9517457804542941e-01 1.0006392002954794e+00 9.7320658590284870e-01 9.6956479900599635e-01 9.9182839762638886e-01 1.0098886250072674e+00 1.0155366268361874e+00 1.0135790986030289e+00 1.0122176659766320e+00 1.0060574598204590e+00 1.0035863690747313e+00 9.9889045866029136e-01 9.9809487018461629e-01 9.9964119526733608e-01 9.7086415776521018e-01 1.0023041582449237e+00 9.8936148111340527e-01 1.0208604085318351e+00 9.9710324713561671e-01 9.9235539965286645e-01 9.9724605219113327e-01 1.0377265870581474e+00 1.0100327192134524e+00 1.0000027057817724e+00 1.5215277822739404e+00 1.0000021852831025e+00 1.0000000791650225e+00 1.0381675595503455e+00 9.9999668690979515e-01 1.0128828647286356e+00 1.0261205750671323e+00 9.8256073455811033e-01 1.0074727621882151e+00 1.0211318063754002e+00 1.0855489383503145e+00 9.6117976794173310e-01 9.8802984937459826e-01 1.0259344254410518e+00 9.6478652659470776e-01 1.0038714832951436e+00 9.9793832311053410e-01 9.7876729398285478e-01 9.4163567393042169e-01 1.0102112411076896e+00 9.9178831451077132e-01 9.5555092138299069e-01 9.9283113781489829e-01 1.0000094480671853e+00 1.0506001638144375e+00 1.0000024580886704e+00 1.0017100036857631e+00 9.9112873982555239e-01 9.4543863928605165e-01 9.7491866648108005e-01 9.8033424512726497e-01 1.0712297297219233e+00 1.0230806368196419e+00 1.0177867905289593e+00 1.0408493105567787e+00 9.9102828843857638e-01 1.0765238790459326e+00 1.0105824556115524e+00 1.0004758124712592e+00 9.7563007566089122e-01 1.0002257066911702e+00 9.4438240543338514e-01 1.0726379568799431e+00 9.6091941292012972e-01 4.5266041913582972e-01 8.6219599004724035e-01 9.7182777533262565e-01 7.5714780831456108e-01 2.9544219627213997e-01 6.0939739176201080e-01 1.0153349593261167e+00 8.9021094942735823e-01 1.0500515412419225e+00 5.6646765653393279e-02 9.4762321251399806e-01 9.9708359452634210e-01 1.0476844016229030e+00 1.3300054274602537e+00 9.7691894665729095e-01 1.1876245442923614e+00 1.0351232698351061e+00 6.4920163077830953e-02 9.7628447896532811e-01 1.0287761412392897e+00 1.4537686198208899e+00 5.5711680917979234e-02 1.1280792952751924e+00 9.5905264975391191e-01 9.7546576043184996e-01 9.5151174632539526e-01 1.6078160315579499e+00 3.9656810356062867e-02 4.3596372643046555e-01 8.3428336477807108e-01 9.9987548181810770e-01 1.8208256490414199e+00 1.0112685970158473e+00 7.6844704643344119e-01 1.2405334349986350e+00 1.8090573259147416e+00 8.8837161566262668e-01 9.6465049520498425e-01 2.3248327348462672e-01 4.8358562398541222e-02 1.0037458858695469e+00 1.0191262660051521e+00 9.1100748562585210e-01 8.8252153165034963e-01 1.0878919132765221e+00 2.2983987448634988e-01 7.5288289992469903e-01 4.5935253537994980e-01 8.3555408008397969e-01 1.7933746819698013e-01 1.0543323666918687e+00 9.9700462096523401e-01 1.1435030963661679e+00 2.4773924226730670e-01 1.3897353395454479e+00 1.0261451666266153e+00 1.0616419195120217e+00 7.2572868385479472e-01 9.4725746212525785e-01 9.5628205591851168e-01 1.2261832437645299e+00 6.6522229867373461e-01 1.0901041343450641e+00 1.0000048036061560e+00 9.9999638681360392e-01 1.0084299500019904e+00 5.7479672016073402e-01 9.9995003116693582e-01 1.0076596886550013e+00 6.8917099321183450e-01 2.8573235632247014e-02 3.0007844361710401e-01 1.0764616593180794e+00 9.3555788145495589e-01 1.2756494652363473e+00 9.4435248433269403e-01 5.7997810846192466e-01 1.0409341159793843e+00 1.0213468021529823e+00 9.0419311917964973e-01 1.5407100102233113e+00 1.6355478823874612e+00 2.2039187965912996e-01 9.9023029290159881e-01 1.0883648658438321e+00 1.0043264503553486e+00 3.1188401052398290e-01 1.1163128962514226e+00 7.3957322491594424e-02 1.0026806955191041e+00 1.4153190269570723e+00 9.9828603351798284e-01 3.5497266177612891e-01 7.9625375303310675e-01 1.0913137211325348e+00 4.6845708663225934e-03 9.8508095948559715e-01 9.8411357535816690e-01 8.9620510395636588e-01 3.3070657582628510e-01 5.4058274817505547e-01 5.4401402298234658e-01 1.0010002809088909e+00 8.0698225060614226e-01 6.5974698184209668e-01 1.0334784299539348e+00 1.4020806826683803e+00 2.9012608191539480e-01 9.4672406316740731e-02 1.0829619871134717e+00 1.0000784426048406e+00 9.5141662515349257e-01 9.6255331674852607e-01 6.6746332093354691e-02 9.8204977354210665e-01 8.4537152238136248e-01 9.7485478117669633e-01 4.6150372948518986e-01 1.0285080712729646e+00 1.5857814374167037e-01 7.5350673848945915e-01 2.1777093539033662e-02 1.4142542986703182e+00 1.4420681617479900e+00 1.1155251637455121e+00 1.4537475136435811e+00 5.4747035525915932e-01 8.2061687411709078e-02 4.4689102379654358e-02 1.4986170235155538e+00 1.3306218540976680e+00 1.0523015309822770e+00 1.0392298517368359e+00 1.0108999238199701e+00 3.1062159862631267e-02 9.1854658576833914e-01 9.8819341145287021e-01 8.9774216671442930e