<?xml version="1.0"?>
<VTKFile type="UnstructuredGrid"  byte_order="LittleEndian">
<UnstructuredGrid>
<Piece NumberOfPoints="1545" NumberOfCells=" 3092">
<Points>
<DataArray type="Float32" NumberOfComponents="3" format="ascii">
26.960739 -0.559809 0.000000 26.895334 -0.482587 0.000000 26.823778 -0.411031 0.000000 27.019541 -0.642167 0.000000 27.073515 -0.542113 0.000000 26.998682 -0.453064 0.000000 26.934683 -0.377500 0.000000 26.746557 -0.345628 0.000000 26.864660 -0.307478 0.000000 27.134672 -0.640928 0.000000 27.071342 -0.729100 0.000000 37.901955 4.416343 0.000000 37.901955 2.350841 0.000000 37.901955 1.316234 0.000000 26.664198 -0.286825 0.000000 37.901955 3.385437 0.000000 27.137157 -0.424137 0.000000 27.207775 -0.539151 0.000000 27.043955 -0.325708 0.000000 26.789097 -0.243478 0.000000 26.913437 -0.183931 0.000000 27.178356 -0.730284 0.000000 27.250580 -0.626707 0.000000 27.115788 -0.820014 0.000000 36.879555 4.416343 0.000000 37.221573 3.039341 0.000000 37.136986 2.091261 0.000000 37.222183 0.970746 0.000000 37.901955 0.281627 0.000000 26.688692 -0.176764 0.000000 26.577265 -0.235024 0.000000 36.541195 3.727842 0.000000 37.901955 -0.752980 0.000000 37.901955 -1.787587 0.000000 26.095627 -0.091634 0.000000 24.969492 -0.642167 0.000000 26.196047 -0.104151 0.000000 26.486351 -0.190579 0.000000 25.028296 -0.559809 0.000000 25.093699 -0.482587 0.000000 26.295088 -0.124918 0.000000 25.165255 -0.411031 0.000000 25.242477 -0.345628 0.000000 26.392078 -0.153793 0.000000 27.157579 -0.208431 0.000000 27.292225 -0.421574 0.000000 27.368603 -0.595692 0.000000 27.037737 -0.102267 0.000000 26.761366 -0.065567 0.000000 26.870941 -0.058570 0.000000 27.214512 -0.822942 0.000000 27.286009 -0.717501 0.000000 27.152573 -0.914288 0.000000 35.860813 4.416343 0.000000 36.270504 2.556278 0.000000 36.542412 1.659866 0.000000 36.315823 0.741040 0.000000 37.222183 -0.407492 0.000000 26.603794 -0.126174 0.000000 35.454781 3.176299 0.000000 37.086231 -1.373002 0.000000 37.901955 -2.822184 0.000000 37.136986 -2.303962 0.000000 25.994516 -0.087452 0.000000 26.208832 0.012359 0.000000 26.111002 0.024554 0.000000 24.917692 -0.729100 0.000000 24.867300 -0.650602 0.000000 24.922966 -0.542113 0.000000 26.305323 -0.007872 0.000000 26.515007 -0.082769 0.000000 24.980604 -0.461384 0.000000 25.044714 -0.385689 0.000000 26.422939 -0.046845 0.000000 25.114855 -0.315548 0.000000 25.208014 -0.243478 0.000000 25.324835 -0.286825 0.000000 27.322622 -0.246121 0.000000 27.248041 -0.046946 0.000000 37.901955 -3.853089 0.000000 25.596956 -0.153793 0.000000 25.693945 -0.124918 0.000000 25.792988 -0.104151 0.000000 25.411768 -0.235024 0.000000 25.502682 -0.190579 0.000000 27.413651 -0.071158 0.000000 24.726742 -0.598006 0.000000 35.046917 2.452631 0.000000 25.893408 -0.091634 0.000000 24.767624 -0.661969 0.000000 24.666689 -0.671870 0.000000 24.793495 -0.515903 0.000000 27.430386 -0.368849 0.000000 27.397449 -0.752131 0.000000 27.509005 -0.570904 0.000000 27.041388 0.140161 0.000000 26.635963 0.005820 0.000000 26.824545 0.078300 0.000000 27.273403 -0.937468 0.000000 27.332291 -0.849484 0.000000 27.181448 -1.011277 0.000000 34.842072 4.416343 0.000000 35.636051 1.545012 0.000000 35.522755 0.741040 0.000000 36.089233 -0.177786 0.000000 35.975937 -0.981758 0.000000 34.435123 2.917648 0.000000 34.503101 3.727224 0.000000 35.862640 -1.785731 0.000000 36.879555 -3.853089 0.000000 36.372013 -2.820338 0.000000 25.986240 0.028628 0.000000 26.224596 0.156002 0.000000 26.071327 0.167800 0.000000 24.815813 -0.737520 0.000000 24.873247 -0.820014 0.000000 24.868105 -0.424138 0.000000 26.407616 0.082844 0.000000 26.521791 0.044331 0.000000 24.933840 -0.339417 0.000000 25.055428 -0.202963 0.000000 25.150404 -0.134265 0.000000 25.288607 -0.185937 0.000000 27.541761 -0.209125 0.000000 27.354650 0.143358 0.000000 25.482838 -0.082769 0.000000 25.574905 -0.046845 0.000000 25.693415 -0.007872 0.000000 25.789906 0.012360 0.000000 25.394051 -0.126175 0.000000 27.632795 0.052587 0.000000 24.610701 -0.595387 0.000000 24.667143 -0.504461 0.000000 34.639053 1.728963 0.000000 25.887737 0.024554 0.000000 24.713932 -0.745939 0.000000 24.612053 -0.754359 0.000000 24.560719 -0.675906 0.000000 24.731098 -0.401432 0.000000 24.162014 -0.721374 0.000000 24.496599 -0.583158 0.000000 27.680487 -0.540629 0.000000 23.766623 -0.635655 0.000000 24.295015 -0.599720 0.000000 33.823330 2.348985 0.000000 24.458525 -0.684341 0.000000 23.845364 -0.734950 0.000000 23.758274 -0.760978 0.000000 23.575111 -0.659049 0.000000 24.363884 -0.701573 0.000000 23.670275 -0.651207 0.000000 23.640976 -0.751819 0.000000 24.061079 -0.731275 0.000000 23.947557 -0.726515 0.000000 24.254137 -0.701211 0.000000 27.691019 -0.323954 0.000000 27.670082 -0.754660 0.000000 27.427336 -0.914199 0.000000 27.184774 0.290436 0.000000 26.900032 0.250189 0.000000 26.674938 0.165739 0.000000 27.339729 -1.066456 0.000000 27.202215 -1.110320 0.000000 33.823330 4.416343 0.000000 34.729691 0.741040 0.000000 35.296165 -0.292639 0.000000 35.055527 -1.441171 0.000000 33.823330 3.382664 0.000000 35.454781 -2.613045 0.000000 35.860813 -3.853089 0.000000 25.928717 0.161902 0.000000 26.417931 0.239971 0.000000 26.244055 0.333317 0.000000 26.054766 0.344626 0.000000 24.772223 -0.826685 0.000000 24.836462 -0.914288 0.000000 24.803391 -0.284974 0.000000 24.918823 -0.136661 0.000000 25.046526 -0.036263 0.000000 25.245380 -0.065568 0.000000 27.701691 -0.104462 0.000000 27.528278 0.300895 0.000000 25.352077 -0.008802 0.000000 25.458773 0.047963 0.000000 25.640131 0.110224 0.000000 25.786106 0.156003 0.000000 27.819115 0.188629 0.000000 24.541006 -0.465150 0.000000 24.624418 -0.325108 0.000000 33.823330 1.315306 0.000000 24.669184 -0.837130 0.000000 24.567152 -0.845687 0.000000 24.510172 -0.762778 0.000000 24.102654 -0.796456 0.000000 24.204533 -0.788037 0.000000 24.117537 -0.644235 0.000000 24.385221 -0.525790 0.000000 27.845087 -0.619133 0.000000 23.862972 -0.620103 0.000000 23.750694 -0.512186 0.000000 24.279173 -0.495401 0.000000 24.181635 -0.545416 0.000000 33.059273 2.348985 0.000000 24.408293 -0.771198 0.000000 23.898893 -0.813295 0.000000 23.797014 -0.821715 0.000000 23.695133 -0.830134 0.000000 23.443487 -0.555464 0.000000 23.538784 -0.760254 0.000000 23.479948 -0.666892 0.000000 23.617430 -0.541150 0.000000 24.306414 -0.779617 0.000000 23.593254 -0.838554 0.000000 23.992628 -0.577798 0.000000 24.000774 -0.804876 0.000000 27.218914 -1.311849 0.000000 27.214731 -1.210739 0.000000 26.990112 0.455313 0.000000 28.019011 0.363514 0.000000 32.804588 1.315306 0.000000 23.384787 -0.674735 0.000000 23.073925 -0.700304 0.000000 28.347708 0.353720 0.000000 28.043142 0.056180 0.000000 23.282782 -0.694853 0.000000 22.977434 -0.708256 0.000000 23.156059 -0.744545 0.000000 28.067392 -0.252663 0.000000 27.871614 -0.814539 0.000000 27.659906 -0.963966 0.000000 27.458302 -1.082126 0.000000 27.280352 0.545700 0.000000 26.812019 0.556511 0.000000 26.642931 0.398503 0.000000 27.294096 -1.181012 0.000000 32.804588 4.416343 0.000000 34.503101 -0.407492 0.000000 33.823330 0.281627 0.000000 34.511711 -2.199388 0.000000 34.248413 -1.096612 0.000000 32.804588 3.382664 0.000000 34.842072 -3.853089 0.000000 34.503101 -3.163970 0.000000 25.872116 0.344626 0.000000 26.430447 0.430585 0.000000 26.268044 0.551900 0.000000 26.034348 0.562605 0.000000 24.735151 -0.920997 0.000000 24.807587 -1.011277 0.000000 24.779795 -0.046946 0.000000 24.653067 -0.167348 0.000000 25.193718 0.078298 0.000000 24.990633 0.140165 0.000000 27.532429 0.534881 0.000000 27.787882 0.648147 0.000000 25.346535 0.165736 0.000000 25.515766 0.239971 0.000000 25.691956 0.314563 0.000000 24.398195 -0.343539 0.000000 24.519707 -0.236425 0.000000 32.804588 0.281627 0.000000 24.633841 -0.927706 0.000000 24.469147 -0.846699 0.000000 24.532530 -0.934415 0.000000 24.166071 -0.866712 0.000000 24.056995 -0.888475 0.000000 24.267096 -0.860041 0.000000 24.079260 -0.485349 0.000000 28.092182 -0.568380 0.000000 23.883959 -0.483222 0.000000 23.666779 -0.403673 0.000000 24.187000 -0.430220 0.000000 31.785845 2.348985 0.000000 24.368122 -0.853370 0.000000 23.862995 -0.886726 0.000000 23.954964 -0.897033 0.000000 23.761971 -0.893397 0.000000 23.660946 -0.900068 0.000000 23.511929 -0.416396 0.000000 23.340750 -0.590901 0.000000 23.354439 -0.429315 0.000000 23.491375 -0.846973 0.000000 23.436590 -0.768689 0.000000 23.559921 -0.906739 0.000000 23.998295 -0.406703 0.000000 27.306292 -1.278843 0.000000 27.214731 -1.412959 0.000000 27.097734 0.700379 0.000000 28.215256 0.652933 0.000000 31.785845 1.315306 0.000000 23.334396 -0.777124 0.000000 23.027815 -0.802428 0.000000 23.000643 -0.527625 0.000000 23.208435 -0.640522 0.000000 23.127592 -0.581444 0.000000 28.635454 0.591792 0.000000 28.786180 0.089372 0.000000 28.387211 -0.100478 0.000000 23.232203 -0.785558 0.000000 22.925621 -0.810863 0.000000 22.886837 -0.726261 0.000000 22.842373 -0.629271 0.000000 23.152664 -0.820383 0.000000 27.181448 -1.612421 0.000000 27.202215 -1.513378 0.000000 25.861477 0.562605 0.000000 29.346666 -0.264770 0.000000 22.563950 -0.747203 0.000000 31.658503 3.382664 0.000000 23.103729 -0.880239 0.000000 29.901031 0.758040 0.000000 22.350359 -0.760005 0.000000 22.463776 -0.760237 0.000000 22.716719 -0.615165 0.000000 22.520290 -0.653472 0.000000 22.777662 -0.735287 0.000000 30.767103 1.315306 0.000000 29.283131 0.325846 0.000000 22.664122 -0.734168 0.000000 28.414993 -0.408685 0.000000 28.117241 -0.887519 0.000000 27.875622 -1.074621 0.000000 27.649870 -1.170444 0.000000 27.490389 -1.256128 0.000000 27.537121 0.799380 0.000000 27.286360 0.950613 0.000000 26.779882 0.913744 0.000000 26.627333 0.661454 0.000000 26.442270 0.605025 0.000000 31.785845 4.416343 0.000000 33.441299 -0.752052 0.000000 33.823330 -2.819410 0.000000 33.568642 -1.785731 0.000000 33.823330 -3.853089 0.000000 25.690962 0.534152 0.000000 26.217779 0.831498 0.000000 25.928759 0.834817 0.000000 24.705441 -1.018135 0.000000 24.786819 -1.110320 0.000000 24.538439 0.004659 0.000000 24.687586 
[...]
<CellData Scalars="Label">
<DataArray type="Int32" Name="Label" format="ascii">
0 0 0 0 0 0 0 0 0 0 0 0 0 0 0 0 0 0 0 0 0 0 0 0 0 0 0 0 0 0 0 0 0 0 0 0 0 0 0 0 0 0 0 0 0 0 0 0 0 0 0 0 0 0 0 0 0 0 0 0 0 0 0 0 0 0 0 0 0 0 0 0 0 0 0 0 0 0 0 0 0 0 0 0 0 0 0 0 0 0 0 0 0 0 0 0 0 0 0 0 0 0 0 0 0 0 0 0 0 0 0 0 0 0 0 0 0 0 0 0 0 0 0 0 0 0 0 0 0 0 0 0 0 0 0 0 0 0 0 0 0 0 0 0 0 0 0 0 0 0 0 0 0 0 0 0 0 0 0 0 0 0 0 0 0 0 0 0 0 0 0 0 0 0 0 0 0 0 0 0 0 0 0 0 0 0 0 0 0 0 0 0 0 0 0 0 0 0 0 0 0 0 0 0 0 0 0 0 0 0 0 0 0 0 0 0 0 0 0 0 0 0 0 0 0 0 0 0 0 0 0 0 0 0 0 0 0 0 0 0 0 0 0 0 0 0 0 0 0 0 0 0 0 0 0 0 0 0 0 0 0 0 0 0 0 0 0 0 0 0 0 0 0 0 0 0 0 0 0 0 0 0 0 0 0 0 0 0 0 0 0 0 0 0 0 0 0 0 0 0 0 0 0 0 0 0 0 0 0 0 0 0 0 0 0 0 0 0 0 0 0 0 0 0 0 0 0 0 0 0 0 0 0 0 0 0 0 0 0 0 0 0 0 0 0 0 0 0 0 0 0 0 0 0 0 0 0 0 0 0 0 0 0 0 0 0 0 0 0 0 0 0 0 0 0 0 0 0 0 0 0 0 0 0 0 0 0 0 0 0 0 0 0 0 0 0 0 0 0 0 0 0 0 0 0 0 0 0 0 0 0 0 0 0 0 0 0 0 0 0 0 0 0 0 0 0 0 0 0 0 0 0 0 0 0 0 0 0 0 0 0 0 0 0 0 0 0 0 0 0 0 0 0 0 0 0 0 0 0 0 0 0 0 0 0 0 0 0 0 0 0 0 0 0 0 0 0 0 0 0 0 0 0 0 0 0 0 0 0 0 0 0 0 0 0 0 0 0 0 0 0 0 0 0 0 0 0 0 0 0 0 0 0 0 0 0 0 0 0 0 0 0 0 0 0 0 0 0 0 0 0 0 0 0 0 0 0 0 0 0 0 0 0 0 0 0 0 0 0 0 0 0 0 0 0 0 0 0 0 0 0 0 0 0 0 0 0 0 0 0 0 0 0 0 0 0 0 0 0 0 0 0 0 0 0 0 0 0 0 0 0 0 0 0 0 0 0 0 0 0 0 0 0 0 0 0 0 0 0 0 0 0 0 0 0 0 0 0 0 0 0 0 0 0 0 0 0 0 0 0 0 0 0 0 0 0 0 0 0 0 0 0 0 0 0 0 0 0 0 0 0 0 0 0 0 0 0 0 0 0 0 0 0 0 0 0 0 0 0 0 0 0 0 0 0 0 0 0 0 0 0 0 0 0 0 0 0 0 0 0 0 0 0 0 0 0 0 0 0 0 0 0 0 0 0 0 0 0 0 0 0 0 0 0 0 0 0 0 0 0 0 0 0 0 0 0 0 0 0 0 0 0 0 0 0 0 0 0 0 0 0 0 0 0 0 0 0 0 0 0 0 0 0 0 0 0 0 0 0 0 0 0 0 0 0 0 0 0 0 0 0 0 0 0 0 0 0 0 0 0 0 0 0 0 0 0 0 0 0 0 0 0 0 0 0 0 0 0 0 0 0 0 0 0 0 0 0 0 0 0 0 0 0 0 0 0 0 0 0 0 0 0 0 0 0 0 0 0 0 0 0 0 0 0 0 0 0 0 0 0 0 0 0 0 0 0 0 0 0 0 0 0 0 0 0 0 0 0 0 0 0 0 0 0 0 0 0 0 0 0 0 0 0 0 0 0 0 0 0 0 0 0 0 0 0 0 0 0 0 0 0 0 0 0 0 0 0 0 0 0 0 0 0 0 0 0 0 0 0 0 0 0 0 0 0 0 0 0 0 0 0 0 0 0 0 0 0 0 0 0 0 0 0 0 0 0 0 0 0 0 0 0 0 0 0 0 0 0 0 0 0 0 0 0 0 0 0 0 0 0 0 0 0 0 0 0 0 0 0 0 0 0 0 0 0 0 0 0 0 0 0 0 0 0 0 0 0 0 0 0 0 0 0 0 0 0 0 0 0 0 0 0 0 0 0 0 0 0 0 0 0 0 0 0 0 0 0 0 0 0 0 0 0 0 0 0 0 0 0 0 0 0 0 0 0 0 0 0 0 0 0 0 0 0 0 0 0 0 0 0 0 0 0 0 0 0 0 0 0 0 0 0 0 0 0 0 0 0 0 0 0 0 0 0 0 0 0 0 0 0 0 0 0 0 0 0 0 0 0 0 0 0 0 0 0 0 0 0 0 0 0 0 0 0 0 0 0 0 0 0 0 0 0 0 0 0 0 0 0 0 0 0 0 0 0 0 0 0 0 0 0 0 0 0 0 0 0 0 0 0 0 0 0 0 0 0 0 0 0 0 0 0 0 0 0 0 0 0 0 0 0 0 0 0 0 0 0 0 0 0 0 0 0 0 0 0 0 0 0 0 0 0 0 0 0 0 0 0 0 0 0 0 0 0 0 0 0 0 0 0 0 0 0 0 0 0 0 0 0 0 0 0 0 0 0 0 0 0 0 0 0 0 0 0 0 0 0 0 0 0 0 0 0 0 0 0 0 0 0 0 0 0 0 0 0 0 0 0 0 0 0 0 0 0 0 0 0 0 0 0 0 0 0 0 0 0 0 0 0 0 0 0 0 0 0 0 0 0 0 0 0 0 0 0 0 0 0 0 0 0 0 0 0 0 0 0 0 0 0 0 0 0 0 0 0 0 0 0 0 0 0 0 0 0 0 0 0 0 0 0 0 0 0 0 0 0 0 0 0 0 0 0 0 0 0 0 0 0 0 0 0 0 0 0 0 0 0 0 0 0 0 0 0 0 0 0 0 0 0 0 0 0 0 0 0 0 0 0 0 0 0 0 0 0 0 0 0 0 0 0 0 0 0 0 0 0 0 0 0 0 0 0 0 0 0 0 0 0 0 0 0 0 0 0 0 0 0 0 0 0 0 0 0 0 0 0 0 0 0 0 0 0 0 0 0 0 0 0 0 0 0 0 0 0 0 0 0 0 0 0 0 0 0 0 0 0 0 0 0 0 0 0 0 0 0 0 0 0 0 0 0 0 0 0 0 0 0 0 0 0 0 0 0 0 0 0 0 0 0 0 0 0 0 0 0 0 0 0 0 0 0 0 0 0 0 0 0 0 0 0 0 0 0 0 0 0 0 0 0 0 0 0 0 0 0 0 0 0 0 0 0 0 0 0 0 0 0 0 0 0 0 0 0 0 0 0 0 0 0 0 0 0 0 0 0 0 0 0 0 0 0 0 0 0 0 0 0 0 0 0 0 0 0 0 0 0 0 0 0 0 0 0 0 0 0 0 0 0 0 0 0 0 0 0 0 0 0 0 0 0 0 0 0 0 0 0 0 0 0 0 0 0 0 0 0 0 0 0 0 0 0 0 0 0 0 0 0 0 0 0 0 0 0 0 0 0 0 0 0 0 0 0 0 0 0 0 0 0 0 0 0 0 0 0 0 0 0 0 0 0 0 0 0 0 0 0 0 0 0 0 0 0 0 0 0 0 0 0 0 0 0 0 0 0 0 0 0 0 0 0 0 0 0 0 0 0 0 0 0 0 0 0 0 0 0 0 0 0 0 0 0 0 0 0 0 0 0 0 0 0 0 0 0 0 0 0 0 0 0 0 0 0 0 0 0 0 0 0 0 0 0 0 0 0 0 0 0 0 0 0 0 0 0 0 0 0 0 0 0 0 0 0 0 0 0 0 0 0 0 0 0 0 0 0 0 0 0 0 0 0 0 0 0 0 0 0 0 0 0 0 0 0 0 0 0 0 0 0 0 0 0 0 0 0 0 0 0 0 0 0 0 0 0 0 0 0 0 0 0 0 0 0 0 0 0 0 0 0 0 0 0 0 0 0 0 0 0 0 0 0 0 0 0 0 0 0 0 0 0 0 0 0 0 0 0 0 0 0 0 0 0 0 0 0 0 0 0 0 0 0 0 0 0 0 0 0 0 0 0 0 0 0 0 0 0 0 0 0 0 0 0 0 0 0 0 0 0 0 0 0 0 0 0 0 0 0 0 0 0 0 0 0 0 0 0 0 0 0 0 0 0 0 0 0 0 0 0 0 0 0 0 0 0 0 0 0 0 0 0 0 0 0 0 0 0 0 0 0 0 0 0 0 0 0 0 0 0 0 0 0 0 0 0 0 0 0 0 0 0 0 0 0 0 0 0 0 0 0 0 0 0 0 0 0 0 0 0 0 0 0 0 0 0 0 0 0 0 0 0 0 0 0 0 0 0 0 0 0 0 0 0 0 0 0 0 0 0 0 0 0 0 0 0 0 0 0 0 0 0 0 0 0 0 0 0 0 0 0 0 0 0 0 0 0 0 0 0 0 0 0 0 0 0 0 0 0 0 0 0 0 0 0 0 0 0 0 0 0 0 0 0 0 0 0 0 0 0 0 0 0 0 0 0 0 0 0 0 0 0 0 0 0 0 0 0 0 0 0 0 0 0 0 0 0 0 0 0 0 0 0 0 0 0 0 0 0 0 0 0 0 0 0 0 0 0 0 0 0 0 0 0 0 0 0 0 0 0 0 0 0 0 0 0 0 0 0 0 0 0 0 0 0 0 0 0 0 0 0 0 0 0 0 0 0 0 0 0 0 0 0 0 0 0 0 0 0 0 0 0 0 0 0 0 0 0 0 0 0 0 0 0 0 0 0 0 0 0 0 0 0 0 0 0 0 0 0 0 0 0 0 0 0 0 0 0 0 0 0 0 0 0 0 0 0 0 0 0 0 0 0 0 0 0 0 0 0 0 0 0 0 0 0 0 0 0 0 0 0 0 0 0 0 0 0 0 0 0 0 0 0 0 0 0 0 0 0 0 0 0 0 0 0 0 0 0 0 0 0 0 0 0 0 0 0 0 0 0 0 0 0 0 0 0 0 0 0 0 0 0 0 0 0 0 0 0 0 0 0 0 0 0 0 0 0 0 0 0 0 0 0 0 0 0 0 0 0 0 0 0 0 0 0 0 0 0 0 0 0 0 0 0 0 0 0 0 0 0 0 0 0 0 0 0 0 0 0 0 0 0 0 0 0 0 0 0 0 0 0 0 0 0 0 0 0 0 0 0 0 0 0 0 0 0 0 0 0 0 0 0 0 0 0 0 0 0 0 0 0 0 0 0 0 0 0 0 0 0 0 0 0 0 0 0 0 0 0 0 0 0 0 0 0 0 0 0 0 0 0 0 0 0 0 0 0 0 0 0 0 0 0 0 0 0 0 0 0 0 0 0 0 0 0 0 0 0 0 0 0 0 0 0 0 0 0 0 0 0 0 0 0 0 0 0 0 0 0 0 0 0 0 0 0 0 0 0 0 0 0 0 0 0 0 0 0 0 0 0 0 0 0 0 0 0 0 0 0 0 0 0 0 0 0 0 0 0 0 0 0 0 0 0 0 0 0 0 0 0 0 0 0 0 0 0 0 0 0 0 0 0 0 0 0 0 0 0 0 0 0 0 0 0 0 0 0 0 0 0 0 0 0 0 0 0 0 0 0 0 0 0 0 0 0 0 0 0 0 0 0 0 0 0 0 0 0 0 0 0 0 0 0 0 0 0 0 0 0 0 0 0 0 0 0 0 0 0 0 0 0 0 0 0 0 0 0 0 0 0 0 0 0 0 0 0 0 0 0 0 0 0 0 0 0 0 0 0 0 0 0 0 0 0 0 0 0 0 0 0 0 0 0 0 0 0 0 0 0 0 0 0 0 0 0 0 0 0 0 0 0 0 0 0 0 0 0 0 0 0 0 0 0 0 0 0 0 0 0 0 0 0 0 0 0 0 0 0 0 0 0 0 0 0 0 0 0 0 0 0 0 0 0 0 0 0 0 0 0 0 0 0 0 0 0 0 0 0 0 0 0 0 0 0 0 0 0 0 0 0 0 0 0 0 0 0 0 0 0 0 0 0 0 0 0 0 0 0 0 0 0 0 0 0 0 0 0 0 0 0 0 0 0 0 0 0 0 0 0 0 0 0 0 0 0 0 0 0 0 0 0 0 0 0 0 0 0 0 0 0 0 0 0 0 0 0 0 0 0 0 0 0 0 0 0 0 0 0 0 0 0 0 0 0 0 0 0 0 0 0 0 0 0 0 0 0 0 0 0 0 0 0 0 0 0 0 0 0 0 0 0 0 0 0 0 0 0 0 0 0 0 0 0 0 0 0 0 0 0 0 0 0 0 0 0 0 0 0 0 0 0 0 0 0 0 0 0 0 0 0 0 0 0 0 0 0 0 0 0 0 0 0 0 0 0 0 0 0 4 4 4 4 4 4 4 4 4 4 4 4 4 4 4 4 4 4 4 4 4 4 4 4 4 4 4 4 4 4 4 4 4 4 4 4 4 4 4 4 4 4 4 4 4 4 4 4 4 4 4 4 4 4 4 4 4 4 4 4 4 4 4 4 4 4 4 4 4 4 4 4 4 4 4 4 4 4 4 4 4 4 4 4 4 4 4 4 4 4 4 4 4 4 4 4 4 4 4 4 4 4 4 4 4 4 4 3 3 3 3 3 3 3 3 3 3 3 3 3 3 3 3 3 3 3 3 3 3 3 3 3 3 3 3 3 3 3 3 3 3 3 3 3 3 3 3 3 3 3 3 3 3 3 3 3 3 3 3 3 3 3 3 3 3 3 3 3 3 3 3 3 3 3 3 3 3 3 3 3 3 2 2 2 2 2 2 2 2 1 1 1 1 1 1 1 1 
</DataArray>
<DataArray type="Float64" Name="u" NumberOfComponents="1" format="ascii">
3.2112249683714871e-03 2.2947175905144160e-04 3.1822485786831757e-02 1.3594556124412599e-03 7.5171839745457212e-03 2.8666981097420102e-03 7.4101823643564892e-04 2.9785448550878450e-04 1.4235678652876260e-02 3.1366099081517711e-02 1.4386789219140923e-02 5.5029821910041578e-03 5.2188092819297399e-02 1.2314394396112868e-01 9.5120777621822833e-02 1.1097579860447394e-01 3.3317880239467784e-01 3.7223830965191895e-01 5.0931238449948857e-01 4.5310569632874842e-01 2.6123468335250061e-01 3.8541658685318853e-01 7.7796606509688435e-02 4.2691927458869947e-02 2.1958920724231674e-02 6.5917765784961602e-01 2.5432404437558637e-01 2.9868117841796848e-01 5.3025333283363330e-01 1.1100145976896128e-01 2.0141572173265837e-01 1.1456012279515243e-01 1.6268815369490566e-01 2.5308932615495972e-01 1.6139063212522786e-01 2.2870935323121128e-01 2.6882894630487419e-01 7.5812037439955279e-02 5.4004512378284986e-01 4.0611410809410781e-01 6.1712964927759925e-04 1.0572894188147863e-03 3.9070895982030895e-01 9.2023396680239034e-01 6.1820440737834315e-01 5.9764850746320153e-01 7.3844212200877668e-01 6.9504803503136681e-01 5.4704550368010696e-01 8.1123908113906218e-01 2.6184703891833033e-01 3.2503229532995420e-01 2.9186904540221847e-01 3.2926617146696890e-01 2.8901150773351403e-01 2.2604519403202605e-01 2.0763242075774513e-01 1.8323771478490070e-01 4.9488618347086455e-02 3.2878850544794683e-02 6.9968715357433889e-02 1.4781869951570298e-01 1.9192308978433426e-01 4.7586187592525683e-02 3.6574423473741613e-01 1.0363025800305486e-02 7.4098129033341842e-02 2.3649427013960379e-02 1.2523333188914628e-02 4.7376535732395302e-03 8.9583924662919000e-03 4.9378098543741960e-03 7.4516933755206499e-03 1.3228420779759981e-01 5.2463927550423395e-02 3.2335802153737735e-02 2.1938082311702769e-02 2.9941623074799817e-01 3.5221308443850391e-01 6.3956846304414006e-01 4.2762487005434002e-01 4.9844758703788805e-01 2.3984040308769945e-02 8.1838464621439261e-02 2.6665822271592136e-02 1.2562157015035226e-02 3.3842207243284163e-02 1.2312894881426074e-01 1.4353704526980310e-02 3.7807531025136643e-01 2.1508077431595857e-01 1.8952289842229619e-01 1.4753478045751570e-01 2.2219709451645914e-01 2.7663273551334555e-01 3.9254311466727992e-01 3.2472748191505624e-01 3.6143860773804137e-01 3.4389336970089313e-01 2.5279625490307284e-01 7.7148065208510072e-02 2.2749401240249587e-02 1.8597714264435997e-01 1.9825187609861881e-02 2.8879931893775863e-02 3.1739907277692256e-02 1.3924512818732643e-01 1.1118039664902024e-01 6.5248158813226875e-02 4.8299931247521272e-01 3.6850895118458182e-02 4.3438199189266127e-02 4.0073419877968319e-01 3.2918493997559772e-01 2.6004483020895885e-01 2.0497265644834578e-01 1.2238331475088488e-01 1.7882445644962910e-01 6.5431833710983989e-02 4.9951884531676878e-02 1.0703680448573091e-01 4.9890907285561753e-02 9.1515164762186935e-02 5.0143726071124294e-02 5.1138936113256581e-02 1.1567475117090474e-01 4.9877816358983151e-01 2.8793273722750196e-01 1.6413234942667854e-01 3.7553141225662506e-01 7.7354569202235907e-02 2.4784912586434193e-01 3.2090016997221082e-01 3.7246592522372907e-01 2.2342293330353341e-01 2.0059976535286542e-01 1.7477769954907352e-01 4.6016572998448926e-02 3.5863293531072937e-01 5.6637529826079536e-01 6.1308157544083230e-01 4.4473857382375304e-01 7.2892479684070866e-02 7.3538650110984344e-02 7.1894322690706530e-02 1.2731353335982973e-01 4.7686100902485526e-02 3.2894652884854048e-01 3.1243576514275595e-01 4.2098753316512116e-01 1.3720414804056302e-01 6.3281468277250424e-02 4.4797068662918951e-02 5.5125381420939346e-01 7.0106684558236265e-02 4.0042353064578962e-01 5.3230425085338928e-01 7.8991481406462921e-02 3.7809528474642251e-02 5.9785040040767942e-02 1.3838626119068378e-02 1.2329261212721650e-02 5.0516441690770193e-02 7.4826208585578202e-02 1.8570297735746791e-01 3.7500681739786976e-02 1.2702026193190913e-01 5.3519690625652004e-02 2.3954308437066148e-02 7.9272316099014153e-02 1.3415678075389906e-01 7.1213546676636555e-02 1.6415533018496811e-01 1.0063042181581905e-01 6.5637665144263502e-02 1.1737984953615081e-01 1.1391124479142072e-02 1.7345500922809787e-02 7.4999786274575125e-02 3.4187933808818974e-02 6.1162931122278278e-03 1.5460465894374831e-01 1.8055683628809582e-01 1.8686604513828514e-01 8.9040154629041364e-03 6.4044662608431446e-02 9.4750375093288139e-02 1.2295417257969915e-01 1.1062802967122992e-01 1.2550320439607321e-01 6.6129665632229079e-02 2.6415537706200951e-02 1.1224338326927619e-01 8.9101711081714774e-02 1.0560091863343633e-01 1.3777341855754754e-01 1.7918610163580129e-01 1.8912768651798822e-01 1.2975446880362052e-01 1.5470689337429977e-01 1.2592042908343756e-01 1.4425314335805364e-01 1.4883737954188497e-01 1.1883962566551420e-01 9.6138540349760049e-02 1.1754426845990047e-01 1.5645301581630455e-01 1.0252359788406440e-01 1.9619172227601889e-01 1.4018527932243691e-01 2.3305381283059362e-01 2.1148757503684518e-01 2.6058954436568887e-01 2.3154013955800853e-01 2.4994958692675226e-01 2.2208714701024684e-01 2.4280925339115944e-01 2.1696239554969182e-01 1.9052858291164695e-01 2.2897945123266583e-01 2.5002722798549626e-01 2.3829303562256562e-01 2.7398038557051951e-01 2.4218743698577844e-01 2.3385761472970246e-01 2.1133290264471294e-01 2.4285135526437074e-01 2.6379443856346513e-01 2.5157480542121557e-01 2.5082989523373223e-01 2.5946421472010356e-01 2.3619033747768753e-01 2.7772968597370667e-01 5.3227275509377847e-01 3.2036854441362228e-01 2.1504173894276474e-01 2.8585870983013462e-01 4.2886642056817803e-01 2.7462566221047280e-01 1.5065426802228712e-01 1.5180300245297573e-01 1.7323467746398194e-01 1.9706328980590382e-01 1.0390405938275206e-01 3.4192930413308890e-02 2.6913131354532764e-02 4.0133841088652794e-01 3.2953738427027413e-01 1.8808644687686446e-01 2.6258165665077204e-01 1.8317824611496705e-01 1.2312682215229154e-01 1.0856153096994053e-01 1.5108726491862140e-01 1.4429360292456314e-01 1.7314183979322303e-01 1.1716213786738375e-01 2.5451202298119001e-03 1.2701218161263739e-02 1.5531808896381896e-03 7.8196898258837250e-04 2.4852043533932507e-02 2.5567257658953832e-02 5.4646903630095195e-03 3.8631927723871640e-02 3.7650881153676680e-02 8.5123395835013577e-02 8.3207223393586285e-02 6.6043468828892726e-02 2.7163700817376846e-01 4.3006916945653999e-02 4.5051632949455519e-03 1.8378992535275338e-02 3.3488676909660481e-02 1.6686673997114782e-02 9.6547201484646801e-03 1.6385593143880380e-02 2.0799406361373257e-02 3.0955230028027275e-02 3.1155777707008406e-02 3.8574528303764247e-02 5.2778114452168609e-02 9.2861146087539134e-03 5.4889491908502973e-03 2.7277501428042816e-03 8.9373776724565989e-03 1.5484032181928564e-03 3.7524731362170781e-04 3.2779835142325653e-03 1.3663779726597297e-03 3.1371637745930325e-02 1.1901884212850548e-02 2.7928025302060563e-02 1.0545743921776544e-01 4.9898037240286748e-02 6.1523305440338939e-02 5.0584454587383060e-02 4.1042041752698794e-02 7.6070594664150457e-03 7.6857808377137127e-02 6.9430834855805715e-02 6.1349465330307183e-02 5.5005567725308263e-02 4.5840605874150508e-02 4.9524664940425983e-02 2.5661597949364942e-02 2.2068916238725936e-02 6.9071292315525772e-03 9.1956472878749421e-03 7.3405739858456165e-02 1.7542193603733072e-03 5.8558004537182808e-04 1.1425229664830073e-03 6.9083254107880576e-02 3.8642299112472953e-02 5.8206855742042103e-02 3.4534297993909790e-01 3.6501356402008300e-01 3.0540217595426600e-01 3.4124505157424379e-01 3.3921835258542077e-01 3.2018558241337652e-01 3.5522236538069846e-01 3.6621200776572560e-01 3.7930987618857170e-01 3.6768473730823514e-01 3.4367578329225790e-01 3.4870199556216752e-01 2.7253875576893538e-01 2.9147511313193064e-01 3.0898882796254173e-01 3.0001543861055285e-01 2.6585364768768177e-01 2.8842802354350722e-01 2.9031285610150193e-01 3.0423970484371032e-01 3.0423697914313919e-01 3.1624904850989966e-01 2.9825495126759222e-01 3.2263931642043697e-01 3.1447473081284594e-01 3.1097922470701567e-01 3.0088619025568408e-01 3.1788531703155865e-01 2.6028039980896128e-01 2.9422157382650560e-01 2.9887205389476013e-01 3.3824190934486897e-01 2.9269404036914493e-01 2.8917021190359082e-01 3.0699862121143362e-01 2.8151404149144277e-01 2.7437265953721363e-01 2.4421355397471056e-01 2.7641493733367400e-01 2.1478300805469844e-01 1.3564139106888518e-01 9.6855305573777500e-02 1.5865172098826200e-01 1.4096366769684540e-01 1.2666824794495332e-01 1.2993223258918485e-01 1.0067612007268398e-01 1.3131507870628256e-01 1.5185510203845481e-01 9.9554364372885257e-02 1.9215584437917532e-01 1.6129972679553845e-01 2.0828799067919093e-01 1.7164629106903906e-01 1.2043172653248566e-01 2.0249510015617700e-01 1.8791449328008905e-01 2.1875898815701822e-01 3.1707481281832850e-01 2.9734931232357775e-01 2.8266790452199986e-01 3.5027018500546503e-01 3.1242272674593624e-01 3.3216999133700054e-01 3.5462606599698820e-01 3.5501482944175566e-01 3.4583984088884390e-01 3.7602304909909434e-01 3.2630400687588201e-01 2.4075047528357388e-01 2.2198908958497912e-01 2.3810106941496950e-01 2.4757215872803509e-01 2.2555828629133268e-01 2.1013174266364745e-01 2.7234947251572134e-01 2.5953204753976566e-01 2.7318084889821159e-01 2.5367155283974857e-01 2.4877283924679244e-01 2.2637925630941005e-01 2.5947800649029562e-01 2.9110471371769048e-01 2.8871346647320811e-01 2.9097644230057640e-01 3.1076800435186747e-01 3.1649116120030291e-01 3.2815028743009900e-01 3.1717070146240178e-01 2.7928561918578265e-01 2.9469954859308345e-01 3.0687748069786347e-01 3.0775288770591003e-01 3.3119734537685841e-01 3.2894028500342465e-01 3.4856615106019195e-01 3.4505750595961132e-01 2.8195720176962902e-01 3.5510985191692662e-01 4.5544695671145691e-01 4.2268335838987303e-01 4.1769689099963730e-01 5.2597936817796631e-01 5.3507781586800518e-01 5.6600728697819891e-01 5.8049214598807874e-01 4.9009559244668355e-01 4.4689629897997757e-01 5.1708019922479609e-01 4.5353652834700925e-01 4.1411474739550341e-01 4.2830556459811131e-01 4.3470381189791707e-01 3.9838001537414014e-01 4.0898203817913953e-01 3.4562149176072421e-01 3.3272010255872952e-01 3.4442069414050047e-01 2.9514195189536607e-01 3.6188041931605530e-01 3.2872946957764870e-01 3.3205808938773740e-01 3.1430559761347809e-01 3.4227078000480626e-01 3.3104514873940627e-01 3.1050483362967451e-01 3.4310980225644161e-01 3.2809933668311270e-01 2.9993819485936191e-01 2.7319672619445812e-01 3.5968339549320250e-01 4.1463534897821674e-01 4.6275337415522177e-01 4.3311524567148385e-01 4.5302165927587157e-01 4.8164845723339189e-01 4.4839558792788009e-01 4.2393584828189618e-01 4.2400036413432340e-01 1.5797842930888335e+00 1.7841852712858977e+00 1.6243161339749661e+00 1.8097040319633735e+00 1.5418660598744995e+00 7.6715257836926476e-01 1.2033298898597229e+00 1.1757894918702290e+00 1.3689420036800790e+00 1.1056340806426310e+00 1.1068033588873123e+00 1.2155646789205359e+00 4.4703543355382991e-01 3.9280055866435926e-01 4.0020224419605976e-01 3.7948336638405378e-01 3.5813740284863649e-01 3.2664989918596510e-01 3.4760484973588146e-01 3.2672650938670050e-01 2.7627989731035452e-01 3.3375524762621206e-01 1.4982297237672082e-01 1.1964128801202700e-01 1.4687233191741361e-01 2.6421058141292303e-01 2.2758990769021453e-01 2.4081290314601334e-01 2.4363489373951466e-01 2.6608267582933742e-01 2.6061879448365155e-01 2.0432524646046069e-01 2.3220584033145653e-01 2.2249301458437176e-01 2.6541854815296512e-01 2.1866654056863305e-01 2.2356861848158405e-01 1.9461783923063836e-01 1.8913241925038185e-01 2.2305433041161488e-01 1.8634320541944377e-01 1.6095955223367117e-01 1.6269111615774734e-01 1.7170956148350586e-01 1.9892050543119877e-01 1.7669821742237923e-01 1.9750998034605538e-01 1.7072821382215000e-01 2.8517847432592935e-01 2.9583104974760643e-01 2.9228975069935886e-01 2.7666880101752844e-01 2.8383111565007335e-01 2.9918678446885494e-01 3.0085026599666265e-01 3.3858146567783787e-01 2.9258749132459527e-01 2.6722945272076093e-01 2.6187519639157869e-01 2.7440589181204683e-01 2.3705335959617729e-01 2.5701599707650336e-01 2.4704878983876660e-01 2.5893354328467028e-01 2.5480986308555054e-01 3.1936240401495719e-01 7.2322803407226946e-03 1.3020764425717885e-01 2.1296883587281651e-01 1.4125600632527285e-01 1.5076051577823019e-01 1.7063218410673417e-01 1.5775123321145124e-01 8.5005131363697167e-02 2.3490781527647019e-02 3.3604791916269150e-01 3.2446004745959001e-01 3.6815396275327050e-01 3.4403392030309499e-01 3.6121088316360228e-01 3.5888881968624092e-01 3.0929295990814976e-01 3.4030465078766359e-01 3.3280727611273886e-01 3.2889526445281758e-01 1.0743922906870325e+00 1.3201722245584235e+00 1.2391272039809782e+00 3.2731773000559500e-01 3.7622665690733592e-01 3.5601155715474297e-01 1.2733170897903690e+00 9.5516690722445796e-01 9.0603625441402302e-01 2.4628761440592226e-01 1.0137217611475267e+00 4.0732981717973016e-01 3.8829812972918454e-01 3.8841480995444910e-01 1.9631194695533324e-01 2.0076644000977512e-01 2.0888662929315382e-01 1.6347435400713267e-01 1.9151622541709346e-01 1.8065315744091365e-01 1.7660545509290465e-01 1.6543155626068307e-01 1.6624569431492642e-01 1.6866031261885689e-01 1.3806826889020307e-01 1.2914369909135820e-01 1.0722905767356357e-01 1.1684931352806283e-01 1.8211088382420185e-01 1.9696657330903181e-01 1.7870979048073030e-01 2.3046101730326674e-01 1.9848231969853294e-01 2.2997929554186480e-01 1.9567712194171200e-01 1.9378042073533996e-01 2.6166700391045628e-01 2.1588578636801831e-01 2.4702864736330116e-01 2.2046541487717053e-01 2.4710763812163830e-01 2.6141041348935135e-01 2.3228448560557302e-01 2.0415655714396358e-01 2.1281346891582631e-01 2.0211318187138827e-01 1.5761985407129678e-01 1.8449158761322279e-01 1.7398869448896342e-01 2.4763914512413115e-01 2.0963647447294692e-01 1.9672472962643378e-01 2.2217012796739272e-01 2.0811577