<?xml version="1.0"?>
<VTKFile type="UnstructuredGrid"  byte_order="LittleEndian">
<UnstructuredGrid>
<Piece NumberOfPoints="1077" NumberOfCells=" 2156">
<Points>
<DataArray type="Float32" NumberOfComponents="3" format="ascii">
18.820320 -0.412139 0.000000 3.558602 0.089071 0.000000 0.222144 -2.842521 0.000000 32.779270 -2.842521 0.000000 0.222144 4.713851 0.000000 32.779270 4.713851 0.000000 18.814499 -0.295490 0.000000 18.797092 -0.179999 0.000000 18.768272 -0.066816 0.000000 18.728325 0.042935 0.000000 18.677650 0.148163 0.000000 18.616749 0.247823 0.000000 18.546228 0.340924 0.000000 18.466787 0.426540 0.000000 18.379217 0.503822 0.000000 18.284388 0.572000 0.000000 18.183241 0.630397 0.000000 18.076780 0.678433 0.000000 17.966068 0.715631 0.000000 17.852201 0.741620 0.000000 17.736313 0.756143 0.000000 17.619555 0.759055 0.000000 17.503086 0.750327 0.000000 17.388067 0.730045 0.000000 17.275637 0.698413 0.000000 17.166916 0.655743 0.000000 17.062984 0.602460 0.000000 16.964874 0.539093 0.000000 16.873560 0.466273 0.000000 16.789949 0.384723 0.000000 16.714876 0.295253 0.000000 16.649084 0.198752 0.000000 16.593225 0.096181 0.000000 16.547859 -0.011443 0.000000 16.513433 -0.123048 0.000000 16.490290 -0.237527 0.000000 16.478661 -0.353742 0.000000 16.478661 -0.470536 0.000000 16.490290 -0.586751 0.000000 16.513433 -0.701230 0.000000 16.547859 -0.812835 0.000000 16.593225 -0.920459 0.000000 16.649084 -1.023031 0.000000 16.714876 -1.119531 0.000000 16.789949 -1.209001 0.000000 16.873560 -1.290551 0.000000 16.964874 -1.363371 0.000000 17.062984 -1.426738 0.000000 17.166916 -1.480021 0.000000 17.275637 -1.522691 0.000000 17.388067 -1.554323 0.000000 17.503086 -1.574605 0.000000 17.619555 -1.583333 0.000000 17.736313 -1.580421 0.000000 17.852201 -1.565898 0.000000 17.966068 -1.539909 0.000000 18.076780 -1.502711 0.000000 18.183241 -1.454675 0.000000 18.284388 -1.396278 0.000000 18.379217 -1.328100 0.000000 18.466787 -1.250818 0.000000 18.546228 -1.165202 0.000000 18.616749 -1.072101 0.000000 18.677650 -0.972441 0.000000 18.728325 -0.867213 0.000000 18.768272 -0.757462 0.000000 18.797092 -0.644279 0.000000 18.814499 -0.528789 0.000000 3.555151 0.158216 0.000000 3.544833 0.226673 0.000000 3.527750 0.293764 0.000000 3.504071 0.358819 0.000000 3.474033 0.421194 0.000000 3.437934 0.480269 0.000000 3.396132 0.535455 0.000000 3.349043 0.586205 0.000000 3.297135 0.632014 0.000000 3.240924 0.672427 0.000000 3.180968 0.707042 0.000000 3.117863 0.735516 0.000000 3.052238 0.757565 0.000000 2.984742 0.772971 0.000000 2.916049 0.781579 0.000000 2.846839 0.783305 0.000000 2.777802 0.778131 0.000000 2.709623 0.766110 0.000000 2.642979 0.747359 0.000000 2.578534 0.722066 0.000000 2.516927 0.690482 0.000000 2.458771 0.652921 0.000000 2.404644 0.609756 0.000000 2.355084 0.561417 0.000000 2.310584 0.508383 0.000000 2.271585 0.451182 0.000000 2.238475 0.390381 0.000000 2.211583 0.326587 0.000000 2.191177 0.260432 0.000000 2.177459 0.192573 0.000000 2.170566 0.123686 0.000000 2.170566 0.054455 0.000000 2.177459 -0.014432 0.000000 2.191177 -0.082290 0.000000 2.211583 -0.148445 0.000000 2.238475 -0.212240 0.000000 2.271585 -0.273040 0.000000 2.310584 -0.330241 0.000000 2.355084 -0.383275 0.000000 2.404644 -0.431615 0.000000 2.458771 -0.474779 0.000000 2.516927 -0.512340 0.000000 2.578534 -0.543924 0.000000 2.642979 -0.569217 0.000000 2.709623 -0.587968 0.000000 2.777802 -0.599990 0.000000 2.846839 -0.605163 0.000000 2.916049 -0.603437 0.000000 2.984742 -0.594829 0.000000 3.052238 -0.579424 0.000000 3.117863 -0.557374 0.000000 3.180968 -0.528901 0.000000 3.240924 -0.494285 0.000000 3.297135 -0.453872 0.000000 3.349043 -0.408063 0.000000 3.396132 -0.357313 0.000000 3.437934 -0.302127 0.000000 3.474033 -0.243053 0.000000 3.504071 -0.180678 0.000000 3.527750 -0.115622 0.000000 3.544833 -0.048532 0.000000 3.555151 0.019926 0.000000 1.208724 -2.842521 0.000000 2.195303 -2.842521 0.000000 3.181883 -2.842521 0.000000 4.168462 -2.842521 0.000000 5.155042 -2.842521 0.000000 6.141622 -2.842521 0.000000 7.128201 -2.842521 0.000000 8.114781 -2.842521 0.000000 9.101360 -2.842521 0.000000 10.087940 -2.842521 0.000000 11.074520 -2.842521 0.000000 12.061099 -2.842521 0.000000 13.047679 -2.842521 0.000000 14.034259 -2.842521 0.000000 15.020839 -2.842521 0.000000 16.007418 -2.842521 0.000000 16.993998 -2.842521 0.000000 17.980577 -2.842521 0.000000 18.967157 -2.842521 0.000000 19.953737 -2.842521 0.000000 20.940315 -2.842521 0.000000 21.926895 -2.842521 0.000000 22.913475 -2.842521 0.000000 23.900055 -2.842521 0.000000 24.886635 -2.842521 0.000000 25.873215 -2.842521 0.000000 26.859795 -2.842521 0.000000 27.846373 -2.842521 0.000000 28.832952 -2.842521 0.000000 29.819532 -2.842521 0.000000 30.806112 -2.842521 0.000000 31.792692 -2.842521 0.000000 0.222144 3.769305 0.000000 0.222144 2.824758 0.000000 0.222144 1.880211 0.000000 0.222144 0.935665 0.000000 0.222144 -0.008881 0.000000 0.222144 -0.953428 0.000000 0.222144 -1.897974 0.000000 32.779270 -1.897974 0.000000 32.779270 -0.953428 0.000000 32.779270 -0.008881 0.000000 32.779270 0.935665 0.000000 32.779270 1.880211 0.000000 32.779270 2.824758 0.000000 32.779270 3.769305 0.000000 31.792692 4.713851 0.000000 30.806112 4.713851 0.000000 29.819532 4.713851 0.000000 28.832952 4.713851 0.000000 27.846373 4.713851 0.000000 26.859795 4.713851 0.000000 25.873215 4.713851 0.000000 24.886635 4.713851 0.000000 23.900055 4.713851 0.000000 22.913475 4.713851 0.000000 21.926895 4.713851 0.000000 20.940315 4.713851 0.000000 19.953737 4.713851 0.000000 18.967157 4.713851 0.000000 17.980577 4.713851 0.000000 16.993998 4.713851 0.000000 16.007418 4.713851 0.000000 15.020839 4.713851 0.000000 14.034259 4.713851 0.000000 13.047679 4.713851 0.000000 12.061099 4.713851 0.000000 11.074520 4.713851 0.000000 10.087940 4.713851 0.000000 9.101360 4.713851 0.000000 8.114781 4.713851 0.000000 7.128201 4.713851 0.000000 6.141622 4.713851 0.000000 5.155042 4.713851 0.000000 4.168462 4.713851 0.000000 3.181883 4.713851 0.000000 2.195303 4.713851 0.000000 1.208724 4.713851 0.000000 22.407866 3.896072 0.000000 6.582391 3.858295 0.000000 13.581322 3.888203 0.000000 6.634912 -1.988118 0.000000 13.564261 -2.058498 0.000000 9.594650 3.859448 0.000000 25.360708 -1.995516 0.000000 28.339663 3.889006 0.000000 21.376356 -2.029819 0.000000 10.581230 -1.988118 0.000000 29.466429 -1.915409 0.000000 25.485067 3.845968 0.000000 15.422201 3.771705 0.000000 4.661752 3.859448 0.000000 19.443680 3.976522 0.000000 31.974108 1.404724 0.000000 18.755867 -1.079077 0.000000 18.608149 -1.317058 0.000000 18.420240 -1.464860 0.000000 18.169146 -1.580698 0.000000 17.931643 -1.651515 0.000000 17.645237 -1.737004 0.000000 17.478699 -1.671592 0.000000 17.163450 -1.616292 0.000000 16.961382 -1.502471 0.000000 16.774065 -1.325067 0.000000 2.620015 3.771845 0.000000 17.548372 3.853155 0.000000 23.512367 -1.977005 0.000000 11.545498 3.840248 0.000000 8.608070 -1.988118 0.000000 27.355591 -1.962386 0.000000 4.776612 -2.085381 0.000000 31.817411 -0.518210 0.000000 30.290073 3.944570 0.000000 0.974848 -1.415496 0.000000 1.069152 1.425927 0.000000 2.237214 0.515257 0.000000 15.530481 -2.133337 0.000000 16.481342 -0.891897 0.000000 2.763053 -2.088248 0.000000 2.528617 -0.580151 0.000000 2.386091 -0.506796 0.000000 2.655192 -0.628242 0.000000 2.807840 -0.662365 0.000000 1.030131 3.433923 0.000000 19.511732 -2.121050 0.000000 16.433477 -2.130643 0.000000 31.961271 3.297031 0.000000 31.227491 -2.049435 0.000000 18.663256 -2.151858 0.000000 3.720837 -2.150927 0.000000 3.109514 -0.620156 0.000000 2.953795 -0.667863 0.000000 4.180146 -1.403718 0.000000 3.418864 -0.427009 0.000000 3.308082 -0.526547 0.000000 19.006598 -1.657422 0.000000 1.675436 -2.246700 0.000000 2.170594 -1.381416 0.000000 20.567347 -2.049357 0.000000 20.989058 -1.378626 0.000000 18.911291 -0.604319 0.000000 18.851532 -0.848031 0.000000 21.715298 -1.286987 0.000000 21.222509 -0.687166 0.000000 22.002308 -0.606516 0.000000 21.583755 -0.016688 0.000000 22.311689 0.065892 0.000000 20.912939 -0.060088 0.000000 18.902376 -0.101301 0.000000 18.905142 -0.338084 0.000000 21.199389 0.493655 0.000000 20.602093 0.429282 0.000000 20.824848 0.957432 0.000000 20.210224 0.854005 0.000000 18.664648 0.358778 0.000000 18.804121 0.147044 0.000000 21.389025 1.130159 0.000000 20.483887 1.409208 0.000000 19.917589 1.338936 0.000000 20.320044 -0.079721 0.000000 19.690523 0.910849 0.000000 19.445885 1.288855 0.000000 17.930624 0.845710 0.000000 18.284388 0.688795 0.000000 18.489929 0.541019 0.000000 19.595715 1.750719 0.000000 19.089579 1.609181 0.000000 19.276365 2.130411 0.000000 18.791990 2.018922 0.000000 19.812729 2.254649 0.000000 18.653149 1.617663 0.000000 18.316347 1.873593 0.000000 18.466108 2.389009 0.000000 17.997377 2.253614 0.000000 17.555202 0.861258 0.000000 17.864016 1.810095 0.000000 17.568394 2.117453 0.000000 17.486540 1.654171 0.000000 17.183830 0.777231 0.000000 17.183405 1.964155 0.000000 17.108858 1.594483 0.000000 16.825445 1.846186 0.000000 16.771416 1.445422 0.000000 16.474613 1.727710 0.000000 16.753986 0.537700 0.000000 16.947592 0.659588 0.000000 16.414341 1.307162 0.000000 16.112598 1.611537 0.000000 16.379688 -0.150615 0.000000 16.034132 1.228091 0.000000 15.719991 1.501745 0.000000 15.650938 1.080289 0.000000 15.283688 1.382311 0.000000 16.356339 -0.404468 0.000000 16.470318 0.082763 0.000000 16.595819 0.307163 0.000000 16.412371 -0.673612 0.000000 15.244353 0.820668 0.000000 14.763217 1.257444 0.000000 14.681635 0.701675 0.000000 14.208727 1.097559 0.000000 15.068135 0.284406 0.000000 14.082146 0.444088 0.000000 13.534100 0.938269 0.000000 16.578108 2.207847 0.000000 14.896632 1.832932 0.000000 17.248232 2.384982 0.000000 15.882068 2.009762 0.000000 13.416653 0.183115 0.000000 12.844640 0.688076 0.000000 12.696857 -0.098950 0.000000 12.069572 0.441722 0.000000 12.939901 1.522798 0.000000 15.989894 0.844712 0.000000 19.291914 0.882929 0.000000 19.482395 0.576640 0.000000 13.960270 -0.226884 0.000000 17.
[...]
<CellData Scalars="Label">
<DataArray type="Int32" Name="Label" format="ascii">
1 1 1 1 1 1 1 1 1 1 1 1 1 1 1 1 1 1 1 1 1 1 1 1 1 1 1 1 1 1 1 1 1 1 1 1 1 1 1 1 1 1 1 1 1 1 1 1 1 1 1 1 1 1 1 1 1 1 1 1 1 1 1 1 1 1 1 1 1 1 1 1 1 1 1 1 1 1 1 1 1 1 1 1 1 1 1 1 1 1 1 1 1 1 1 1 1 1 1 1 1 1 1 1 1 1 1 1 1 1 1 1 1 1 1 1 1 1 1 1 1 1 1 1 1 1 1 1 1 1 1 1 1 1 1 1 1 1 1 1 1 1 1 1 1 1 1 1 1 1 1 1 1 1 1 1 1 1 1 1 1 1 1 1 1 1 1 1 1 1 1 1 1 1 1 1 1 1 1 1 1 1 1 1 1 1 1 1 1 1 1 1 1 1 1 1 1 1 1 1 1 1 1 1 1 1 1 1 1 1 1 1 1 1 1 1 1 1 1 1 1 1 1 1 1 1 1 1 1 1 1 1 1 1 1 1 1 1 1 1 1 1 1 1 1 1 1 1 1 1 1 1 1 1 1 1 1 1 1 1 1 1 1 1 1 1 1 1 1 1 1 1 1 1 1 1 1 1 1 1 1 1 1 1 1 1 1 1 1 1 1 1 1 1 1 1 1 1 1 1 1 1 1 1 1 1 1 1 1 1 1 1 1 1 1 1 1 1 1 1 1 1 1 1 1 1 1 1 1 1 1 1 1 1 1 1 1 1 1 1 1 1 1 1 1 1 1 1 1 1 1 1 1 1 1 1 1 1 1 1 1 1 1 1 1 1 1 1 1 1 1 1 1 1 1 1 1 1 1 1 1 1 1 1 1 1 1 1 1 1 1 1 1 1 1 1 1 1 1 1 1 1 1 1 1 1 1 1 1 1 1 1 1 1 1 1 1 1 1 1 1 1 1 1 1 1 1 1 1 1 1 1 1 1 1 1 1 1 1 1 1 1 1 1 1 1 1 1 1 1 1 1 1 1 1 1 1 1 1 1 1 1 1 1 1 1 1 1 1 1 1 1 1 1 1 1 1 1 1 1 1 1 1 1 1 1 1 1 1 1 1 1 1 1 1 1 1 1 1 1 1 1 1 1 1 1 1 1 1 1 1 1 1 1 1 1 1 1 1 1 1 1 1 1 1 1 1 1 1 1 1 1 1 1 1 1 1 1 1 1 1 1 1 1 1 1 1 1 1 1 1 1 1 1 1 1 1 1 1 1 1 1 1 1 1 1 1 1 1 1 1 1 1 1 1 1 1 1 1 1 1 1 1 1 1 1 1 1 1 1 1 1 1 1 1 1 1 1 1 1 1 1 1 1 1 1 1 1 1 1 1 1 1 1 1 1 1 1 1 1 1 1 1 1 1 1 1 1 1 1 1 1 1 1 1 1 1 1 1 1 1 1 1 1 1 1 1 1 1 1 1 1 1 1 1 1 1 1 1 1 1 1 1 1 1 1 1 1 1 1 1 1 1 1 1 1 1 1 1 1 1 1 1 1 1 1 1 1 1 1 1 1 1 1 1 1 1 1 1 1 1 1 1 1 1 1 1 1 1 1 1 1 1 1 1 1 1 1 1 1 1 1 1 1 1 1 1 1 1 1 1 1 1 1 1 1 1 1 1 1 1 1 1 1 1 1 1 1 1 1 1 1 1 1 1 1 1 1 1 1 1 1 1 1 1 1 1 1 1 1 1 1 1 1 1 1 1 1 1 1 1 1 1 1 1 1 1 1 1 1 1 1 1 1 1 1 1 1 1 1 1 1 1 1 1 1 1 1 1 1 1 1 1 1 1 1 1 1 1 1 1 1 1 1 1 1 1 1 1 1 1 1 1 1 1 1 1 1 1 1 1 1 1 1 1 1 1 1 1 1 1 1 1 1 1 1 1 1 1 1 1 1 1 1 1 1 1 1 1 1 1 1 1 1 1 1 1 1 1 1 1 1 1 1 1 1 1 1 1 1 1 1 1 1 1 1 1 1 1 1 1 1 1 1 1 1 1 1 1 1 1 1 1 1 1 1 1 1 1 1 1 1 1 1 1 1 1 1 1 1 1 1 1 1 1 1 1 1 1 1 1 1 1 1 1 1 1 1 1 1 1 1 1 1 1 1 1 1 1 1 1 1 1 1 1 1 1 1 1 1 1 1 1 1 1 1 1 1 1 1 1 1 1 1 1 1 1 1 1 1 1 1 1 1 1 1 1 1 1 1 1 1 1 1 1 1 1 1 1 1 1 1 1 1 1 1 1 1 1 1 1 1 1 1 1 1 1 1 1 1 1 1 1 1 1 1 1 1 1 1 1 1 1 1 1 1 1 1 1 1 1 1 1 1 1 1 1 1 1 1 1 1 1 1 1 1 1 1 1 1 1 1 1 1 1 1 1 1 1 1 1 1 1 1 1 1 1 1 1 1 1 1 1 1 1 1 1 1 1 1 1 1 1 1 1 1 1 1 1 1 1 1 1 1 1 1 1 1 1 1 1 1 1 1 1 1 1 1 1 1 1 1 1 1 1 1 1 1 1 1 1 1 1 1 1 1 1 1 1 1 1 1 1 1 1 1 1 1 1 1 1 1 1 1 1 1 1 1 1 1 1 1 1 1 1 1 1 1 1 1 1 1 1 1 1 1 1 1 1 1 1 1 1 1 1 1 1 1 1 1 1 1 1 1 1 1 1 1 1 1 1 1 1 1 1 1 1 1 1 1 1 1 1 1 1 1 1 1 1 1 1 1 1 1 1 1 1 1 1 1 1 1 1 1 1 1 1 1 1 1 1 1 1 1 1 1 1 1 1 1 1 1 1 1 1 1 1 1 1 1 1 1 1 1 1 1 1 1 1 1 1 1 1 1 1 1 1 1 1 1 1 1 1 1 1 1 1 1 1 1 1 1 1 1 1 1 1 1 1 1 1 1 1 1 1 1 1 1 1 1 1 1 1 1 1 1 1 1 1 1 1 1 1 1 1 1 1 1 1 1 1 1 1 1 1 1 1 1 1 1 1 1 1 1 1 1 1 1 1 1 1 1 1 1 1 1 1 1 1 1 1 1 1 1 1 1 1 1 1 1 1 1 1 1 1 1 1 1 1 1 1 1 1 1 1 1 1 1 1 1 1 1 1 1 1 1 1 1 1 1 1 1 1 1 1 1 1 1 1 1 1 1 1 1 1 1 1 1 1 1 1 1 1 1 1 1 1 1 1 1 1 1 1 1 1 1 1 1 1 1 1 1 1 1 1 1 1 1 1 1 1 1 1 1 1 1 1 1 1 1 1 1 1 1 1 1 1 1 1 1 1 1 1 1 1 1 1 1 1 1 1 1 1 1 1 1 1 1 1 1 1 1 1 1 1 1 1 1 1 1 1 1 1 1 1 1 1 1 1 1 1 1 1 1 1 1 1 1 1 1 1 1 1 1 1 1 1 1 1 1 1 1 1 1 1 1 1 1 1 1 1 1 1 1 1 1 1 1 1 1 1 1 1 1 1 1 1 1 1 1 1 1 1 1 1 1 1 1 1 1 1 1 1 1 1 1 1 1 1 1 1 1 1 1 1 1 1 1 1 1 1 1 1 1 1 1 1 1 1 1 1 1 1 1 1 1 1 1 1 1 1 1 1 1 1 1 1 1 1 1 1 1 1 1 1 1 1 1 1 1 1 1 1 1 1 1 1 1 1 1 1 1 1 1 1 1 1 1 1 1 1 1 1 1 1 1 1 1 1 1 1 1 1 1 1 1 1 1 1 1 1 1 1 1 1 1 1 1 1 1 1 1 1 1 1 1 1 1 1 1 1 1 1 1 1 1 1 1 1 1 1 1 1 1 1 1 1 1 1 1 1 1 1 1 1 1 1 1 1 1 1 1 1 1 1 1 1 1 1 1 1 1 1 1 1 1 1 1 1 1 1 1 1 1 1 1 1 1 1 1 1 1 1 1 1 1 1 1 1 1 1 1 1 1 1 1 1 1 1 1 1 1 1 1 1 1 1 1 1 1 1 1 1 1 1 1 1 1 1 1 1 1 1 1 1 1 1 1 1 1 1 1 1 1 1 1 1 1 1 1 1 1 1 1 1 1 1 1 1 1 1 1 1 1 1 1 1 1 1 1 1 1 1 1 1 1 1 1 1 1 1 1 1 1 1 1 1 1 1 1 1 1 1 1 1 1 1 1 1 1 1 1 1 1 1 1 1 1 1 1 1 1 1 1 1 1 1 1 1 1 1 1 1 1 1 1 1 1 1 1 1 1 1 1 1 1 1 1 1 1 1 1 1 1 1 1 1 1 1 1 1 1 1 1 1 1 1 1 1 1 1 1 1 1 1 1 1 1 1 1 1 1 1 1 1 1 1 1 5 5 5 5 5 5 5 5 5 5 5 5 5 5 5 5 5 5 5 5 5 5 5 5 5 5 5 5 5 5 5 5 5 5 5 5 5 5 5 5 5 5 5 5 5 5 5 5 5 5 5 5 5 5 5 5 5 5 5 5 5 5 5 5 5 5 5 5 5 5 5 5 5 5 5 5 5 5 5 5 5 5 5 5 5 5 5 5 5 5 5 5 5 5 5 5 5 5 5 5 5 5 5 5 5 5 5 5 5 5 5 5 5 5 5 5 5 5 5 5 5 5 5 5 5 5 4 4 4 4 4 4 4 4 4 4 4 4 4 4 4 4 4 4 4 4 4 4 4 4 4 4 4 4 4 4 4 4 4 2 2 2 2 2 2 2 2 3 3 3 3 3 3 3 3 4 4 4 4 4 4 4 4 4 4 4 4 4 4 4 4 4 4 4 4 4 4 4 4 4 4 4 4 4 4 4 4 4 
</DataArray>
<DataArray type="Float64" Name="u" NumberOfComponents="1" format="ascii">
5.6184757003922159e-01 5.6638498360051059e-01 8.4633576530442833e-01 9.7188378266330189e-01 5.0947696471311055e-01 1.8282409860204574e+00 1.2792554850339730e+00 1.8153892391316645e-01 2.3972036689403872e-01 6.7559644146639775e-01 1.8771151197949021e-01 3.8580924076266437e-01 4.9604274888071964e-01 3.1034588332728741e-01 5.7367959051737825e-02 1.3838429742165232e+00 8.0124286108911313e-01 1.2927996187241144e+00 1.0466207113528168e-01 2.4098390192825747e-01 3.5046697978753516e-01 1.8479280919344918e+00 7.9768232127388061e-01 4.3378796619247062e-01 9.5837396771534356e-01 5.9286011177806397e-01 2.2862298012798599e-01 2.1182338104187446e+00 6.8850335375359983e-01 3.3309869669464726e-01 1.8824667332218376e-01 7.6594153170233659e-01 1.9703668622642187e-01 1.4169766371091113e+00 5.1240779968405503e-01 2.0335691210582345e+00 1.2219915920547320e+00 8.5811024611241382e-01 1.2449329568259644e+00 9.8608351547703227e-02 3.1111452376006860e-01 4.4973151913086477e-02 4.7065006411742549e-02 1.9090685633509449e-02 6.9877865340731604e-01 1.9578435006536909e-01 5.0319244590789580e-01 8.7744123439849531e-01 6.3908103906152181e-01 5.7574052944989629e-02 1.2471791124296061e+00 5.3369730746846855e-01 1.4446507098836729e+00 8.2173722897005663e-01 5.3803620722305789e-01 9.4861531881111016e-01 9.0046537810841309e-01 3.7971543854774459e-01 1.0168598399310631e+00 9.5410912420976723e-01 1.3280083766598247e+00 9.6037824141575601e-01 2.9535721402227777e-01 3.5510134340023025e-01 1.6441310734146491e-01 1.4236587552273705e+00 9.7080135370048060e-02 4.3971442600559885e-01 1.4157456033188343e+00 6.3205189133146905e-02 3.7234203260892912e-01 1.4503143720976246e+00 6.1637339966832794e-01 3.1947739946004902e-02 8.7989272542303631e-01 2.1288681253742121e+00 1.2924141898007653e+00 4.4236492914215020e-01 5.2629698347663526e-02 4.0500396476568445e-01 8.0024526577252209e-01 4.7419182732488341e-01 4.7810563773147796e-01 7.1223143569607794e-01 1.3400463748199416e+00 2.6677463718569085e-02 4.7210592541561042e-01 4.2366893027667041e-01 4.7853194223362094e-02 1.4135791722173963e-01 2.4470586715208373e-01 6.2371436335267694e-01 2.1841023680431899e+00 1.3426698987281664e+00 5.7500111378642649e-01 1.1018350778201425e+00 5.1064674475500516e-01 1.1345444946521808e+00 6.8848365352905255e-02 1.5130916880397258e+00 1.1141803984845633e+00 1.0696529686629621e+00 6.3450303558742138e-01 5.9296421779510555e-01 5.0557072589758845e-01 9.0845115007553945e-01 5.3376794404867678e-01 1.1008436699806303e+00 3.1169354553461238e-02 1.8393702152086362e+00 1.0230029100147413e-01 4.2611525611469891e-01 4.9666848576855849e-01 1.1339475291855510e+00 1.3655676858522552e+00 4.0907747783809506e-01 1.0123999179118526e+00 1.9330316586038330e+00 5.9895340836011335e-01 6.3250249379879414e-02 1.1939560231179402e+00 3.8805208387739454e-01 2.1948474787991730e+00 9.8034091105653909e-01 1.0189273740445361e+00 2.5356474411427854e-01 5.4118624960136696e-01 6.4114426369723865e-01 1.7503194960276709e+00 5.3820619381656232e-01 3.1651775871994914e-02 1.7223194287514485e+00 6.3742711237212024e-01 1.3489731882971920e+00 1.0436202130717334e+00 7.3459786962583640e-01 7.9501478074187970e-01 6.5197898372619356e-01 6.9757180131626817e-01 4.2384037279848957e-01 1.5950747679764121e+00 3.0579683380780032e-01 1.3926744278343015e-01 2.1747578379669000e-01 1.8355276950106201e+00 6.5918073175100655e-01 6.1093887319984375e-01 4.1024497296826862e-01 7.4438674943439453e-01 8.4339209559515216e-01 9.9802007801312431e-01 1.0068655836177220e-02 7.4374524133355102e-01 3.2482569384929399e-01 6.0071425270941281e-02 1.0414675999071887e+00 4.7030491690923498e-01 6.1736813075606611e-01 9.8296402982382991e-01 1.0780515023539090e+00 8.3864103617494279e-01 2.2012078060857510e-01 4.3486576903591856e-01 8.8638579068634682e-01 4.3485475451697383e-02 5.3564079327007552e-01 9.4816484533707268e-01 5.5888265804270820e-01 2.5621944573861266e-01 6.6018434420907157e-02 1.0032314320692746e+00 2.3153277985161580e-01 9.5468169095698707e-01 2.5643102081224495e-01 4.0382063348619723e-01 2.8664830546940123e-01 4.2669483304017430e-01 2.1524411563486440e-01 1.5751816860098216e+00 3.1730679918909932e-01 3.3965563754013356e-01 7.5998351694566779e-01 5.6941430241035362e-01 7.0376322067328756e-01 3.9951030014366523e-01 4.3935011796129164e-01 5.4422225045467110e-01 5.3468279812574870e-01 8.5933085654349284e-01 1.9389193901189408e-01 3.4026176538484032e-01 1.2278835033105309e+00 7.1764296179322484e-01 9.6373035520135675e-01 3.6442967055961456e-01 1.0675629411075251e+00 3.4196685377680203e-01 1.1000789627295675e+00 1.1563484240674491e-02 6.0128418068626878e-02 1.1993960182073158e+00 1.1234868164641014e+00 1.2977855025622966e+00 5.1108289281796460e-01 8.4328143983772552e-01 3.6882103498705077e-01 7.1361943343491330e-01 1.3647966887465071e+00 6.4470690223063931e-01 1.5522482073734398e+00 5.7228305384017220e-01 1.8429493725793800e-01 5.0689730349793738e-01 2.6421074154185398e-01 6.5521858009645784e-01 4.0061663473491571e-01 1.3232455247533936e+00 3.1497831250354680e-01 1.0132412717870585e+00 9.1498209475798520e-01 1.1488925384220878e+00 5.2333978829784344e-01 1.0725541813333146e+00 1.3744506503698819e+00 5.6810745086413306e-01 4.2418996387548441e-01 1.4448760784572218e-01 8.8400401493674308e-01 3.3080645159611954e-01 1.5840819966951243e+00 1.9079013072110160e+00 9.1343825510303311e-01 6.8851823589409972e-02 1.0390165265196658e+00 1.4748053600481406e+00 4.8033819675306266e-01 1.2530147927547715e+00 6.4626537060770084e-01 9.0284909608523894e-02 5.4784572462418538e-02 8.5975336801421776e-01 1.0335169810113376e+00 1.3159332540442810e+00 4.4733960637526865e-01 1.5476688797463662e+00 1.0207049461853610e+00 2.0639273429805755e-01 9.5855551692599128e-01 4.5210266493290474e-01 1.3523274028030760e-01 9.7422460644297115e-01 1.2167411910781982e+00 4.5011067245865438e-01 3.6121787130468319e-01 1.1550607203149204e+00 1.5267551771175689e+00 7.5053584870025325e-01 2.7854644649113308e-01 4.0654081533852604e-01 7.5213691397305160e-01 8.2019224256346196e-02 1.0824633720942032e+00 9.6047618487642339e-01 1.4064012540784937e-01 9.5960475341684970e-01 1.5714576112820203e-01 1.1641943091130009e+00 7.9821811741540283e-01 3.5029586037781568e-01 1.2313031520196476e+00 1.0501993955376481e+00 9.7463787160338478e-01 1.3995189460136739e-01 1.0517537175548319e-01 1.5701544197865169e-01 1.3265473774956336e+00 9.7850574042181915e-01 2.2670572669133566e+00 1.3170947323759736e+00 2.3909701476870213e-01 1.6045788987595739e+00 1.4306484077500753e-01 1.6329927354645660e-01 1.8676096833792705e-01 6.4152726524119263e-01 1.0933905892913325e+00 9.1945535747528728e-01 2.7805236525489979e-01 1.1320838565153188e+00 1.6914065243673333e+00 2.1661388462205027e+00 1.2785562627896709e+00 1.7934663031942173e+00 4.4009243962379530e-01 2.3887395086474700e-01 6.0357197606530089e-01 4.1917010374805630e-01 5.6588009078191326e-01 9.1551087188314373e-01 8.4509450361548755e-01 5.2143450599791874e-01 2.7967351832771881e-02 2.2806348685584057e+00 1.9423633008763405e-01 1.5353999049494300e+00 6.5728014413275637e-02 1.1798906323495129e-01 1.0725256375375076e+00 1.7797004509846337e+00 8.7160921158763516e-01 7.2819173745176013e-01 5.8633486555255843e-01 4.4756752572315073e-01 4.3536929797594637e-01 1.2442994393689251e+00 9.8518836111505095e-02 1.3515772499962999e+00 1.3710911574561755e+00 9.4247281036597275e-01 1.7218968346193992e+00 1.0011490827950034e-01 3.8233840673753927e-01 1.4039758537159859e+00 7.8447560609952538e-01 7.4554193892181275e-01 1.2475509236075562e+00 2.6443447441472301e-01 1.0078446268878871e-01 1.5154892800836537e+00 8.6487963999703354e-01 6.2159310266223133e-01 2.2133074726999435e+00 1.4431966947916122e+00 7.1922879951211949e-01 4.1552711527391883e-01 7.6693014618114097e-01 2.3062195727901829e+00 1.9210090500760999e+00 1.1451024758514705e+00 1.7525453647629603e+00 1.4578181773171068e+00 9.1011412207241960e-01 9.3373322064836373e-01 8.3887361884696587e-01 1.8889641461423440e-01 1.3587409915478172e+00 4.9128254855066955e-01 1.2031968531365331e+00 8.9254146747683172e-02 4.7355644296024313e-01 4.3380779983129808e-01 2.1225591813082700e+00 1.0469519505986307e+00 2.2838815828164286e-01 1.3946163609938749e+00 6.1592373590001726e-01 7.5799017924492040e-01 6.2298127753000410e-01 2.3692272826908289e-01 2.0545213789417498e+00 1.0463793648536725e-01 7.3955319736357250e-01 6.3426832304006653e-01 1.3590607557927514e+00 7.1499818260876646e-01 3.5366412238311151e-01 6.9223544696053574e-01 4.0137887827195567e-01 9.2571975870553214e-01 2.0193308827840375e+00 9.3460213197093123e-01 9.8659927268418834e-01 1.4696731406027311e-01 9.4887840266683099e-01 8.6603967554480832e-01 9.7740853361333357e-01 8.0871267592609697e-01 9.1680670026347344e-01 3.6589011774426045e-01 1.1811870755521946e-01 6.7808637804892852e-02 8.8965442935699679e-01 1.8560871095849627e+00 4.2530734404700776e-01 1.4511192424846411e+00 4.9934928355041575e-01 6.6924373060631726e-01 6.9043647626088056e-01 4.6652470890426961e-01 1.0295435606593464e+00 2.0269593580407624e-01 6.8919330026396519e-01 1.0206216251767612e+00 1.2479030207223269e+00 1.3192788733895149e+00 1.0580385409846211e+00 6.5153477264129123e-01 1.4382183088585014e+00 3.1200772946447941e-01 2.0109708759216915e+00 8.6479044311587505e-01 8.5606879376860257e-01 4.3312639727601887e-01 9.5955934125426290e-01 2.2910430636693058e-01 1.6767009998487241e+00 3.6174424521233700e-01 2.5091135871304043e-01 5.0128857741947119e-01 1.4104716186873600e+00 1.1353927973851374e+00 1.4886028732111787e+00 7.3106117551122773e-01 9.9666728195580631e-02 6.4196421667717418e-01 8.2738649863194746e-01 1.2952410465702227e-01 4.2468863959793567e-02 1.6915265478881639e-01 1.3033069446431034e+00 1.1907010045763946e+00 8.5557838877851078e-01 1.3648803653961534e+00 9.4662179334504137e-01 4.9254339873130687e-02 9.6783824625058701e-01 1.2969074153783766e+00 1.9972769440192745e-01 3.6031855628964576e-01 4.8175467491064999e-01 1.6809000994653920e+00 2.3678626425724207e-02 4.8904587320174797e-01 2.4867397748849557e-01 1.2817416690738193e+00 1.5891328961235338e+00 1.7245351257693704e+00 5.9778439478499168e-01 1.6107556908888077e+00 3.2990981696772598e-01 8.0972691100672090e-01 1.2653584174335806e+00 2.2360269778035500e+00 5.3806858307986571e-01 4.6465527564961878e-01 6.7269130145039879e-02 7.6175557690625895e-01 2.7952271233448206e-01 1.6056878237600680e+00 1.1921529696084678e+00 7.7850724029334595e-01 3.8367545834157124e-01 5.1679166995219616e-01 6.6181888161646651e-01 1.1238033076150730e-01 5.2520934206971370e-01 1.2461677530201394e-01 2.1684180029515865e+00 1.8628414251184529e+00 1.1864089188594611e+00 2.0928222342207246e+00 1.5550207847822055e+00 9.7666610868274950e-01 9.8199567417597255e-01 8.5119999337139785e-01 1.0143369006614078e+00 2.0235192674790614e-01 9.0647528676051203e-01 2.6931888371690416e-01 1.4506154515507113e+00 7.6591475937756104e-01 4.1041084033098990e-01 9.6435916266407207e-01 1.2411131980820610e-01 5.8725698980775731e-01 3.4183492858440823e-01 9.5118052437180156e-01 2.2631358323441453e+00 8.8848715752560836e-01 1.0467710680593783e+00 9.2901759503821180e-01 7.5257072882356446e-01 2.8878297097462341e-01 5.2919504850712507e-01 1.4476729166169859e+00 4.6561302375612729e-01 9.3452784353725460e-01 8.4277996198056160e-01 9.7648117099988524e-02 3.2419962373028643e-01 1.1675675638401302e+00 1.0187769871034149e+00 7.4123335743364849e-01 1.3318002697909095e-01 7.7599757904764544e-01 1.2137591073018283e+00 8.1335707942679458e-01 4.4943148139647515e-01 9.0201903317430343e-01 1.7614570997717779e-01 3.1243543180013844e-01 1.4223720144102456e+00 1.2051792452054104e+00 4.4718829881920241e-01 1.2744148177500079e+00 6.2455239992076672e-01 3.0179941611294836e-01 8.1335213835011244e-02 4.7662907559929218e-01 6.4088716459929085e-01 4.5869562346914861e-01 1.6153079861537218e+00 9.4188818565418297e-01 1.0681104175684780e-01 3.0649872535848077e-01 2.1541302126234636e+00 9.2800706385642839e-01 1.2282167714128447e+00 1.5795202988157118e+00 8.9942188127831657e-01 1.4770426975286584e+00 1.4152083061658211e-01 3.5607700354346128e-02 9.4838404104211915e-01 1.0729544818139192e+00 2.5202328621731618e-01 7.5972854080989138e-01 1.1274794332482077e+00 7.9196263464261274e-01 1.2063537579681549e+00 1.5087330349245465e+00 1.4028968102412183e+00 1.8511891809614660e+00 1.0071435144580634e+00 8.7430245480448843e-01 1.4912116970040850e+00 9.4051661385717311e-01 8.3277422761131648e-01 3.4090230624548035e-01 1.4031434707138863e+00 6.4766451762495425e-01 9.8719009976261263e-01 9.5127111223913341e-01 1.3142442486884063e+00 6.8832304935409194e-01 1.2318049553033275e+00 6.1325849940922761e-01 4.4252875102876588e-01 6.6491122740748354e-01 4.0616363938279471e-01 1.1546784993677246e+00 1.3177456373228309e+00 1.0138354601979125e+00 4.7696160383044239e-01 6.5222632260350555e-01 7.5933868428397067e-01 2.6083341006806399e-01 1.0077562324477145e+00 1.9351550727343165e+00 7.8345166369416597e-01 9.1353377082259257e-01 2.1784293127679408e-01 4.5976082254491762e-01 4.7639855557437594e-01 2.8132665199561524e-01 1.3633499072874289e+00 6.4360836823511347e-01 4.8873896861479227e-01 1.3324830444746172e-01 1.1065094334506367e+00 1.0556797869238768e+00 9.8156229405119122e-01 5.5432649833274261e-01 1.2187754690222929e+00 1.2126706150933368e+00 6.2062053987923617e-02 1.1226523161469266e+00 1.0588053124794723e+00 1.0229096196275798e+00 8.7780885706616585e-01 1.0326184875905833e+00 2.1220086113744507e+00 1.2240273806880682e+00 5.6412789840732502e-01 8.2081874403492627e-02 6.9164759445618895e-01 9.2809424466922041e-01 9.0179689485771108e-01 1.1077160632847274e+00 1.2657100685827869e+00 1.4093899514190757e+00 8.6714157541925652e-01 4.5943363786801340e-02 1.3240096352295918e+00 1.2184313444475712e+00 7.5359467356726362e-01 1.1624341707822010e+00 6.7422015750187514e-01 8.4985627684794907e-01 5.8823217330556754e-01 7.7953429380293338e-01 1.0309616887150623e+00 1.0559953845539831e+00 1.0053889667693705e+00 9.6137431422385800e-01 7.1982417946599953e-01 8.3352581118044933e-01 1.0632870465790458e+00 1.3754690723826044e+00 3.6222892306605003e-01 9.7956514335470890e-01 1.0038775236607436e+00 2.4009531083835578e-01 6.4543810913002964e-01 1.0497759888632561e+00 1.0109425176795428e+00 1.4874133491283401e-01 5.8369579928563009e-01 1.0118261585389592e+00 7.8389631131828552e-01 1.0215149965665897e+00 1.1054002186178906e+00 9.8995882704448879e-01 1.1383410796431073e+00 9.3810128944144799e-01 1.0686840734081200e+00 1.0917383314267162e+00 1.4540298217681360e+00 1.0743816080734288e+00 1.0655092436860494e+00 1.1734807562404057e+00 1.2974854870077741e+00 7.5734457185054782e-01 8.6362574443316853e-01 9.9313722299795582e-01 8.1367283760381381e-01 1.1005212494901551e+00 1.1198260192602543e+00 1.0115574154959281e+00 1.0290390006505208e+00 9.7160602310606592e-01 6.6990292342450275e-01 7.1959312496763894e-01 7.8793052841802391e-01 8.8322980527443384e-01 9.3620356894274703e-01 1.0881073711230047e+00 1.2220305986567457e+00 1.2674076500988183e+00 8.6699412737543935e-01 8.2014857983472877e-01 8.4221781945057295e-01 1.7133072368329127e+00 8.4690853782934727e-01 9.7928223829875616e-01 9.5795131902578134e-01 1.4158095209459982e+00 8.7826750467962977e-01 1.0004434283745920e+00 1.4098898015461840e+00 1.0904180434277257e+00 9.4410230259202388e-01 9.7553031804988866e-01 9.0549434704739640e-01 9.8073341491785770e-01 9.6694233031696686e-01 1.0253892191153500e+00 9.8802497420552027e-01 9.8446591262554439e-01 6.7218879761272654e-01 5.4116198668713311e-01 4.7797471203207731e-01 1.2959928620807117e+00 1.0336197968894301e+00 8.7089728214941142