<?xml version="1.0"?>
<VTKFile type="UnstructuredGrid"  byte_order="LittleEndian">
<UnstructuredGrid>
<Piece NumberOfPoints="1117" NumberOfCells=" 2236">
<Points>
<DataArray type="Float32" NumberOfComponents="3" format="ascii">
29.842964 0.173999 0.000000 29.916502 0.105766 0.000000 29.760078 0.230510 0.000000 29.878571 0.280875 0.000000 29.949921 0.215251 0.000000 29.669695 0.274036 0.000000 29.979050 0.027334 0.000000 30.021788 0.148568 0.000000 29.775793 0.336177 0.000000 30.047258 0.287840 0.000000 29.944662 0.375049 0.000000 30.029209 -0.059544 0.000000 29.687347 0.378770 0.000000 29.573833 0.303606 0.000000 30.093426 0.049868 0.000000 30.149853 0.200631 0.000000 30.190292 0.328549 0.000000 29.842068 0.462258 0.000000 30.030329 0.498281 0.000000 30.142330 -0.034835 0.000000 30.065859 -0.152927 0.000000 29.708410 0.503742 0.000000 29.571693 0.417173 0.000000 29.474636 0.318557 0.000000 30.216120 0.098194 0.000000 30.305841 0.264045 0.000000 30.431030 0.400808 0.000000 30.237387 0.477519 0.000000 30.113556 0.664713 0.000000 29.895397 0.612997 0.000000 30.282387 -0.004243 0.000000 30.178062 -0.125882 0.000000 30.088181 -0.250730 0.000000 29.733591 0.653142 0.000000 29.474815 0.431774 0.000000 29.569099 0.554904 0.000000 29.374317 0.318557 0.000000 30.665651 0.491299 0.000000 30.951038 0.601369 0.000000 30.550114 0.272467 0.000000 30.812801 0.282425 0.000000 30.455912 0.033659 0.000000 30.449369 0.668561 0.000000 30.239233 0.840786 0.000000 29.959112 0.793095 0.000000 29.763678 0.831652 0.000000 30.316986 -0.151847 0.000000 30.199827 -0.247800 0.000000 30.095678 -0.350767 0.000000 29.565956 0.721796 0.000000 29.353205 0.431776 0.000000 29.448349 0.561993 0.000000 29.275120 0.303606 0.000000 31.298433 0.735355 0.000000 30.666424 0.830278 0.000000 31.019604 0.954680 0.000000 32.861938 1.338379 0.000000 32.235447 1.096749 0.000000 31.721125 0.898381 0.000000 31.644249 0.355412 0.000000 30.966558 0.064173 0.000000 31.231075 0.274009 0.000000 31.459908 0.090573 0.000000 30.702358 0.000492 0.000000 30.966558 -0.149052 0.000000 30.489103 -0.151106 0.000000 34.549908 0.927887 0.000000 32.156288 0.456294 0.000000 33.576645 0.736134 0.000000 32.791111 0.581368 0.000000 30.391476 1.051412 0.000000 30.035158 1.008043 0.000000 29.799587 1.044704 0.000000 29.562141 0.924301 0.000000 30.207136 -0.345334 0.000000 29.256327 0.417173 0.000000 30.345133 -0.338607 0.000000 30.199827 -0.469430 0.000000 30.088181 -0.450804 0.000000 29.431263 0.728628 0.000000 29.327599 0.569082 0.000000 29.388115 0.937342 0.000000 29.179260 0.274036 0.000000 29.164085 0.378769 0.000000 31.420649 1.267844 0.000000 31.066862 1.275476 0.000000 30.749561 1.167092 0.000000 30.488028 1.372811 0.000000 34.549908 1.989408 0.000000 34.549908 3.050929 0.000000 33.623409 1.632068 0.000000 32.905487 1.999914 0.000000 32.284821 1.755915 0.000000 31.779629 1.436570 0.000000 32.201736 -0.143737 0.000000 31.699423 -0.145898 0.000000 31.294096 -0.147642 0.000000 30.984390 -0.387096 0.000000 30.721512 -0.234108 0.000000 30.516106 -0.330272 0.000000 34.549908 -0.133634 0.000000 32.496624 -0.517770 0.000000 32.824509 -0.141058 0.000000 33.595127 -0.137742 0.000000 30.126032 1.264902 0.000000 29.361984 1.111063 0.000000 29.913923 1.264901 0.000000 29.557520 1.169616 0.000000 29.175909 0.477162 0.000000 30.338058 -0.492491 0.000000 30.178062 -0.564785 0.000000 30.065859 -0.548607 0.000000 30.509319 -0.521063 0.000000 29.296572 0.735461 0.000000 29.189497 0.590238 0.000000 29.172398 0.924301 0.000000 29.088877 0.230510 0.000000 29.075640 0.336177 0.000000 29.059843 0.462261 0.000000 31.120169 1.637309 0.000000 30.685184 1.692442 0.000000 30.234705 1.572073 0.000000 34.549908 5.162050 0.000000 34.549908 4.112350 0.000000 33.871952 3.754636 0.000000 33.779957 2.791604 0.000000 32.293190 2.426376 0.000000 32.954700 2.747442 0.000000 31.733553 2.154752 0.000000 31.245302 2.075691 0.000000 34.549908 -1.195155 0.000000 31.937284 -0.480895 0.000000 31.590269 -0.457037 0.000000 31.294096 -0.436673 0.000000 30.984398 -0.600320 0.000000 30.721512 -0.556463 0.000000 30.766920 -0.846601 0.000000 33.595127 -1.057486 0.000000 32.201736 -0.856576 0.000000 32.824509 -0.946372 0.000000 29.959606 1.572054 0.000000 29.331848 1.311424 0.000000 29.131800 1.169616 0.000000 29.551910 1.467419 0.000000 28.959291 1.264901 0.000000 30.293467 -0.619755 0.000000 30.029209 -0.641990 0.000000 30.118919 -0.650297 0.000000 30.446154 -0.705010 0.000000 29.040960 0.612992 0.000000 29.018398 0.793091 0.000000 28.991470 1.008040 0.000000 29.005989 0.173999 0.000000 28.972860 0.280875 0.000000 28.933331 0.408403 0.000000 28.886070 0.560869 0.000000 30.819689 2.006773 0.000000 30.364305 1.938399 0.000000 30.014091 1.938380 0.000000 33.527275 5.162050 0.000000 33.193993 4.458343 0.000000 33.010391 3.593398 0.000000 31.797220 2.807975 0.000000 32.403656 3.158165 0.000000 31.207125 2.535616 0.000000 33.864227 -1.906878 0.000000 34.549908 -3.306276 0.000000 34.549908 -2.256576 0.000000 31.699423 -0.784148 0.000000 31.294096 -0.725705 0.000000 31.032095 -1.033464 0.000000 30.559561 -0.875626 0.000000 30.775434 -1.065061 0.000000 32.987568 -1.696066 0.000000 32.112320 -1.377263 0.000000 29.705633 1.887302 0.000000 29.408197 1.838050 0.000000 29.082516 1.467419 0.000000 28.747185 1.264901 0.000000 30.246973 -0.752452 0.000000 29.979050 -0.728868 0.000000 30.083622 -0.740238 0.000000 30.378883 -0.900916 0.000000 28.829605 0.743031 0.000000 28.676693 0.626404 0.000000 28.762215 0.960442 0.000000 28.932451 0.105766 0.000000 28.900898 0.214105 0.000000 28.825512 0.323459 0.000000 28.757236 0.462442 0.000000 30.519209 2.376238 0.000000 29.974005 2.417529 0.000000 32.516033 5.162050 0.000000 32.257591 4.377724 0.000000 31.336374 3.089622 0.000000 31.870111 3.555845 0.000000 30.704298 2.899406 0.000000 33.186440 -2.610407 0.000000 33.527275 -3.306276 0.000000 31.377251 -1.223061 0.000000 30.770094 -1.341223 0.000000 30.549444 -1.092882 0.000000 32.543121 -2.254114 0.000000 32.012234 -1.960091 0.000000 31.524843 -1.602643 0.000000 29.417919 2.274043 0.000000 29.022875 1.827789 0.000000 28.645721 1.572054 0.000000 28.579943 1.121760 0.000000 29.916502 -0.807300 0.000000 30.156219 -0.871319 0.000000 30.035313 -0.823912 0.000000 30.253191 -1.046409 0.000000 28.822067 0.128778 0.000000 28.574444 0.469310 0.000000 28.528048 0.752286 0.000000 28.418840 0.983874 0.000000 28.289892 1.257327 0.000000 28.869905 0.027334 0.000000 28.743328 0.216678 0.000000 28.664967 0.333898 0.000000 30.071575 2.932943 0.000000 29.429703 2.802587 0.000000 31.504793 5.162050 0.000000 31.189489 4.270826 0.000000 30.925531 3.524736 0.000000 30.188198 3.549005 0.000000 32.516033 -3.306276 0.000000 31.055079 -1.661974 0.000000 30.482849 -1.698377 0.000000 30.296881 -1.405777 0.000000 31.900103 -2.613046 0.000000 31.423698 -2.076854 0.000000 28.871124 2.400826 0.000000 28.524712 1.938380 0.000000 28.138027 1.579378 0.000000 28.695019 0.133004 0.000000 29.941347 -0.914892 0.000000 29.842964 -0.875533 0.000000 30.053215 -1.022402 0.000000 30.157595 -1.186628 0.000000 28.761852 0.029829 0.000000 28.495111 0.304559 0.000000 28.393118 0.466583 0.000000 28.306320 0.733060 0.000000 28.168709 0.945497 0.000000 28.009699 1.190971 0.000000 28.819746 -0.059544 0.000000 28.583338 0.164403 0.000000 29.998808 -1.457804 0.000000 29.444004 3.443973 0.000000 28.795996 2.919376 0.000000 30.493551 5.162050 0.000000 30.327341 4.284036 0.000000 29.461319 4.220563 0.000000 31.504793 -3.306276 0.000000 30.731077 -2.088931 0.000000 30.105629 -1.856908 0.000000 31.062481 -2.610355 0.000000 28.380079 2.376220 0.000000 27.958979 1.959074 0.000000 27.825893 1.474722 0.000000 28.659719 0.043067 0.000000 29.876616 -1.001261 0.000000 29.760078 -0.932044 0.000000 29.926081 -1.186075 0.000000 28.408237 0.154530 0.000000 28.725830 -0.061955 0.000000 28.304800 0.316414 0.000000 28.178463 0.584648 0.000000 28.020578 0.777249 0.000000 27.839735 0.997854 0.000000 27.632504 1.250651 0.000000 28.783096 -0.152927 0.000000 28.473135 -0.031301 0.000000 29.774946 -1.273332 0.000000 29.802282 -1.692189 0.000000 29.790571 -2.143165 0.000000 28.706196 3.539187 0.000000 28.207260 2.899390 0.000000 29.482311 5.162050 0.000000 28.646646 4.220563 0.000000 30.493551 -3.306276 0.000000 30.262775 -2.444046 0.000000 27.747566 2.407400 0.000000 27.613661 1.802356 0.000000 27.394987 1.540390 0.000000 28.626064 -0.100341 0.000000 29.551914 -1.556237 0.000000 29.669695 -0.975570 0.000000 29.712307 -1.096124 0.000000 28.314926 -0.006618 0.000000 28.211926 0.158496 0.000000 28.696861 -0.189077 0.000000 28.095789 0.353796 0.000000 27.990145 0.516030 0.000000 27.804960 0.717672 0.000000 27.570282 0.920817 0.000000 27.360775 1.147965 0.000000 28.760773 -0.250730 0.000000 28.357662 -0.191786 0.000000 28.591867 -0.246056 0.000000 29.569099 -1.124162 0.000000 29.562141 -1.299126 0.000000 29.358770 -1.934188 0.000000 29.408817 -2.490020 0.000000 28.000692 3.524724 0.000000 27.525421 2.969994 0.000000 28.471071 5.162050 0.000000 27.739250 4.260614 0.000000 29.482311 -3.306276 0.000000 27.368340 2.181072 0.000000 27.085041 2.618416 0.000000 27.123095 1.872066 0.000000 27.032484 1.359464 0.000000 29.324753 -1.556364 0.000000 29.573833 -1.005140 0.000000 28.132423 -0.103313 0.000000 28.007053 0.106029 0.000000 28.950495 -1.934197 0.000000 28.667894 -0.316200 0.000000 27.769978 0.435808 0.000000 27.505651 0.578212 0.000000 27.267986 0.866657 0.000000 29.474636 -1.020091 0.000000 28.115862 -0.350800 0.000000 28.753277 -0.350767 0.000000 28.399164 -0.371604 0.000000 28.557072 -0.394321 0.000000 29.427469 -1.124163 0.000000 29.301590 -1.299124 0.000000 29.082560 -1.556237 0.000000 28.756281 -2.490026 0.000000 26.917053 0.803784 0.000000 27.223902 3.583783 0.000000 26.757132 3.124628 0.000000 27.459831 5.162050 0.000000 26.867882 4.308517 0.000000 28.471071 -3.306276 0.000000 26.811762 2.251853 0.000000 26.454735 2.687382 0.000000 26.672546 1.739237 0.000000 26.608438 1.147821 0.000000 27.911848 -0.159810 0.000000 27.733753 0.14
[...]
<CellData Scalars="Label">
<DataArray type="Int32" Name="Label" format="ascii">
0 0 0 0 0 0 0 0 0 0 0 0 0 0 0 0 0 0 0 0 0 0 0 0 0 0 0 0 0 0 0 0 0 0 0 0 0 0 0 0 0 0 0 0 0 0 0 0 0 0 0 0 0 0 0 0 0 0 0 0 0 0 0 0 0 0 0 0 0 0 0 0 0 0 0 0 0 0 0 0 0 0 0 0 0 0 0 0 0 0 0 0 0 0 0 0 0 0 0 0 0 0 0 0 0 0 0 0 0 0 0 0 0 0 0 0 0 0 0 0 0 0 0 0 0 0 0 0 0 0 0 0 0 0 0 0 0 0 0 0 0 0 0 0 0 0 0 0 0 0 0 0 0 0 0 0 0 0 0 0 0 0 0 0 0 0 0 0 0 0 0 0 0 0 0 0 0 0 0 0 0 0 0 0 0 0 0 0 0 0 0 0 0 0 0 0 0 0 0 0 0 0 0 0 0 0 0 0 0 0 0 0 0 0 0 0 0 0 0 0 0 0 0 0 0 0 0 0 0 0 0 0 0 0 0 0 0 0 0 0 0 0 0 0 0 0 0 0 0 0 0 0 0 0 0 0 0 0 0 0 0 0 0 0 0 0 0 0 0 0 0 0 0 0 0 0 0 0 0 0 0 0 0 0 0 0 0 0 0 0 0 0 0 0 0 0 0 0 0 0 0 0 0 0 0 0 0 0 0 0 0 0 0 0 0 0 0 0 0 0 0 0 0 0 0 0 0 0 0 0 0 0 0 0 0 0 0 0 0 0 0 0 0 0 0 0 0 0 0 0 0 0 0 0 0 0 0 0 0 0 0 0 0 0 0 0 0 0 0 0 0 0 0 0 0 0 0 0 0 0 0 0 0 0 0 0 0 0 0 0 0 0 0 0 0 0 0 0 0 0 0 0 0 0 0 0 0 0 0 0 0 0 0 0 0 0 0 0 0 0 0 0 0 0 0 0 0 0 0 0 0 0 0 0 0 0 0 0 0 0 0 0 0 0 0 0 0 0 0 0 0 0 0 0 0 0 0 0 0 0 0 0 0 0 0 0 0 0 0 0 0 0 0 0 0 0 0 0 0 0 0 0 0 0 0 0 0 0 0 0 0 0 0 0 0 0 0 0 0 0 0 0 0 0 0 0 0 0 0 0 0 0 0 0 0 0 0 0 0 0 0 0 0 0 0 0 0 0 0 0 0 0 0 0 0 0 0 0 0 0 0 0 0 0 0 0 0 0 0 0 0 0 0 0 0 0 0 0 0 0 0 0 0 0 0 0 0 0 0 0 0 0 0 0 0 0 0 0 0 0 0 0 0 0 0 0 0 0 0 0 0 0 0 0 0 0 0 0 0 0 0 0 0 0 0 0 0 0 0 0 0 0 0 0 0 0 0 0 0 0 0 0 0 0 0 0 0 0 0 0 0 0 0 0 0 0 0 0 0 0 0 0 0 0 0 0 0 0 0 0 0 0 0 0 0 0 0 0 0 0 0 0 0 0 0 0 0 0 0 0 0 0 0 0 0 0 0 0 0 0 0 0 0 0 0 0 0 0 0 0 0 0 0 0 0 0 0 0 0 0 0 0 0 0 0 0 0 0 0 0 0 0 0 0 0 0 0 0 0 0 0 0 0 0 0 0 0 0 0 0 0 0 0 0 0 0 0 0 0 0 0 0 0 0 0 0 0 0 0 0 0 0 0 0 0 0 0 0 0 0 0 0 0 0 0 0 0 0 0 0 0 0 0 0 0 0 0 0 0 0 0 0 0 0 0 0 0 0 0 0 0 0 0 0 0 0 0 0 0 0 0 0 0 0 0 0 0 0 0 0 0 0 0 0 0 0 0 0 0 0 0 0 0 0 0 0 0 0 0 0 0 0 0 0 0 0 0 0 0 0 0 0 0 0 0 0 0 0 0 0 0 0 0 0 0 0 0 0 0 0 0 0 0 0 0 0 0 0 0 0 0 0 0 0 0 0 0 0 0 0 0 0 0 0 0 0 0 0 0 0 0 0 0 0 0 0 0 0 0 0 0 0 0 0 0 0 0 0 0 0 0 0 0 0 0 0 0 0 0 0 0 0 0 0 0 0 0 0 0 0 0 0 0 0 0 0 0 0 0 0 0 0 0 0 0 0 0 0 0 0 0 0 0 0 0 0 0 0 0 0 0 0 0 0 0 0 0 0 0 0 0 0 0 0 0 0 0 0 0 0 0 0 0 0 0 0 0 0 0 0 0 0 0 0 0 0 0 0 0 0 0 0 0 0 0 0 0 0 0 0 0 0 0 0 0 0 0 0 0 0 0 0 0 0 0 0 0 0 0 0 0 0 0 0 0 0 0 0 0 0 0 0 0 0 0 0 0 0 0 0 0 0 0 0 0 0 0 0 0 0 0 0 0 0 0 0 0 0 0 0 0 0 0 0 0 0 0 0 0 0 0 0 0 0 0 0 0 0 0 0 0 0 0 0 0 0 0 0 0 0 0 0 0 0 0 0 0 0 0 0 0 0 0 0 0 0 0 0 0 0 0 0 0 0 0 0 0 0 0 0 0 0 0 0 0 0 0 0 0 0 0 0 0 0 0 0 0 0 0 0 0 0 0 0 0 0 0 0 0 0 0 0 0 0 0 0 0 0 0 0 0 0 0 0 0 0 0 0 0 0 0 0 0 0 0 0 0 0 0 0 0 0 0 0 0 0 0 0 0 0 0 0 0 0 0 0 0 0 0 0 0 0 0 0 0 0 0 0 0 0 0 0 0 0 0 0 0 0 0 0 0 0 0 0 0 0 0 0 0 0 0 0 0 0 0 0 0 0 0 0 0 0 0 0 0 0 0 0 0 0 0 0 0 0 0 0 0 0 0 0 0 0 0 0 0 0 0 0 0 0 0 0 0 0 0 0 0 0 0 0 0 0 0 0 0 0 0 0 0 0 0 0 0 0 0 0 0 0 0 0 0 0 0 0 0 0 0 0 0 0 0 0 0 0 0 0 0 0 0 0 0 0 0 0 0 0 0 0 0 0 0 0 0 0 0 0 0 0 0 0 0 0 0 0 0 0 0 0 0 0 0 0 0 0 0 0 0 0 0 0 0 0 0 0 0 0 0 0 0 0 0 0 0 0 0 0 0 0 0 0 0 0 0 0 0 0 0 0 0 0 0 0 0 0 0 0 0 0 0 0 0 0 0 0 0 0 0 0 0 0 0 0 0 0 0 0 0 0 0 0 0 0 0 0 0 0 0 0 0 0 0 0 0 0 0 0 0 0 0 0 0 0 0 0 0 0 0 0 0 0 0 0 0 0 0 0 0 0 0 0 0 0 0 0 0 0 0 0 0 0 0 0 0 0 0 0 0 0 0 0 0 0 0 0 0 0 0 0 0 0 0 0 0 0 0 0 0 0 0 0 0 0 0 0 0 0 0 0 0 0 0 0 0 0 0 0 0 0 0 0 0 0 0 0 0 0 0 0 0 0 0 0 0 0 0 0 0 0 0 0 0 0 0 0 0 0 0 0 0 0 0 0 0 0 0 0 0 0 0 0 0 0 0 0 0 0 0 0 0 0 0 0 0 0 0 0 0 0 0 0 0 0 0 0 0 0 0 0 0 0 0 0 0 0 0 0 0 0 0 0 0 0 0 0 0 0 0 0 0 0 0 0 0 0 0 0 0 0 0 0 0 0 0 0 0 0 0 0 0 0 0 0 0 0 0 0 0 0 0 0 0 0 0 0 0 0 0 0 0 0 0 0 0 0 0 0 0 0 0 0 0 0 0 0 0 0 0 0 0 0 0 0 0 0 0 0 0 0 0 0 0 0 0 0 0 0 0 0 0 0 0 0 0 0 0 0 0 0 0 0 0 0 0 0 0 0 0 0 0 0 0 0 0 0 0 0 0 0 0 0 0 0 0 0 0 0 0 0 0 0 0 0 0 0 0 0 0 0 0 0 0 0 0 0 0 0 0 0 0 0 0 0 0 0 0 0 0 0 0 0 0 0 0 0 0 0 0 0 0 0 0 0 0 0 0 0 0 0 0 0 0 0 0 0 0 0 0 0 0 0 0 0 0 0 0 0 0 0 0 0 0 0 0 0 0 0 0 0 0 0 0 0 0 0 0 0 0 0 0 0 0 0 0 0 0 0 0 0 0 0 0 0 0 0 0 0 0 0 0 0 0 0 0 0 0 0 0 0 0 0 0 0 0 0 0 0 0 0 0 0 0 0 0 0 0 0 0 0 0 0 0 0 0 0 0 0 0 0 0 0 0 0 0 0 0 0 0 0 0 0 0 0 0 0 0 0 0 0 0 0 0 0 0 0 0 0 0 0 0 0 0 0 0 0 0 0 0 0 0 0 0 0 0 0 0 0 0 0 0 0 0 0 0 0 0 0 0 0 0 0 0 0 0 0 0 0 0 0 0 0 0 0 0 0 0 0 0 0 0 0 0 0 0 0 0 0 0 0 0 0 0 0 0 0 0 0 0 0 0 0 0 0 0 0 0 0 0 0 0 0 0 0 0 0 0 0 0 0 0 0 0 0 0 0 0 0 0 0 0 0 0 0 0 0 0 0 0 0 0 0 0 0 0 0 0 0 0 0 0 4 4 4 4 4 4 4 4 4 4 4 4 4 4 4 4 4 4 4 4 4 4 4 4 4 4 4 4 4 4 4 4 4 4 4 4 4 4 4 4 4 4 4 4 4 4 4 4 4 4 4 4 4 4 4 4 4 4 4 4 4 4 4 4 4 4 4 4 4 4 4 4 4 4 4 4 4 4 4 4 4 4 4 4 4 4 4 4 4 4 4 4 4 4 4 4 4 4 4 4 4 4 4 4 4 4 4 4 4 4 4 4 4 3 3 3 3 3 3 3 3 3 3 3 3 3 3 3 3 3 3 3 3 3 3 3 3 3 3 3 3 3 3 3 3 3 3 3 3 3 3 3 3 3 3 3 3 3 3 3 3 3 3 3 3 3 3 3 3 3 3 3 3 3 3 3 3 3 3 3 3 2 2 2 2 2 2 2 2 1 1 1 1 1 1 1 1 
</DataArray>
<DataArray type="Float64" Name="u" NumberOfComponents="1" format="ascii">
5.6396954884411835e-02 1.3762777611809621e-01 2.0568327185591284e-01 2.3454102025898715e-01 2.7614302557734005e-01 7.5061265571627442e-02 3.9428625191836236e-02 9.7380525867860696e-02 4.6931630807912975e-02 3.7733359415568886e-02 1.0935123356842049e+00 7.8295115290974349e-01 8.6996235636430486e-01 9.7903234402579487e-01 1.0567971840297288e+00 6.6739635342568704e-01 6.6455756352677930e-01 7.7327862373788092e-01 8.7587418112931381e-01 6.3430820789968712e-01 5.7023498603158096e-01 4.4963780222395838e-01 6.9081388283624301e-01 5.0744798880044562e-01 6.0124545791014483e-01 7.7879411491960027e-01 7.2454595386260701e-01 5.7197671128081606e-01 2.3551044929086645e-01 3.0589750935224269e-01 3.8976365559237025e-01 3.8839212958220454e-01 1.4276573718043406e+00 1.3784998140016709e+00 1.2566176675662304e+00 1.2675173613971380e+00 1.0363588569211146e+00 1.2068304725540604e+00 1.2495768486380898e+00 8.5391059012371662e-01 1.0988836455721858e+00 7.9438601747855708e-01 9.7820881037781038e-01 1.0642346606637130e+00 9.9786523184147935e-01 1.2967582247220495e+00 1.3288264208729785e+00 1.3935478937495791e+00 1.5343787828894868e+00 8.9051407510634806e-01 9.8631424490448705e-01 1.1216621663350472e+00 1.1751434476311766e+00 1.3355325884175409e+00 1.1924587632016106e+00 9.3877094520999749e-01 1.1740223935024430e+00 1.2388216435698829e+00 8.7466782458403780e-01 5.4677453075091609e-01 1.4426989027914054e+00 1.0788911591463841e+00 1.2001553245322880e+00 6.3271760909352961e-03 5.4155096963829251e-03 5.3648630226395752e-02 1.8749148382883052e-02 6.2206894122736299e-03 1.7968231277033758e-01 1.1846061035713125e+00 1.0295652222656998e-01 4.5741329483413327e-02 8.6286150047778551e-02 1.0742145669628694e-02 1.1575801477853473e-01 7.3452528961170147e-02 1.3084766631975109e-01 2.7863689233891431e-02 3.0188841748858733e-02 1.8993815810158549e-01 1.7865367520937113e-02 3.5762498735523340e-01 2.3457909104393709e-01 3.1083380212820844e-01 1.0480951495072501e+00 1.1010234615432157e+00 8.7656926058757190e-01 4.6909805814295835e-01 4.1191405637039885e-01 2.4376158846472765e-01 1.5712966934945789e+00 1.4979504723580954e+00 1.4157477151816646e+00 1.2332219640997972e+00 1.5515845403408086e+00 1.4441961584766441e+00 1.4989007535658754e+00 1.3107454793648552e+00 1.5823705408855022e+00 1.5531808237277476e+00 1.0155651950689748e+00 1.0415126544005662e+00 9.0505344532731624e-01 1.2020438862483442e+00 1.4097084911479256e+00 9.8681097369799686e-01 7.8454164253983771e-01 6.9427350596843462e-01 4.1647677860739640e-01 4.7819331521407776e-01 4.9004112150111745e-01 5.6075032060871943e-01 3.7779926267233277e-01 3.5476540026244641e-01 4.6863445582744745e-01 5.4528790260009241e-01 5.0534823812069152e-01 5.4007312058184909e-01 6.5663709172898166e-01 6.5672816388974342e-01 8.5391982876243011e-01 2.2149869832868110e-01 4.4266401790358345e-01 3.0271134064326943e-01 3.8472289451921121e-01 4.2407484032627069e-01 3.4601147638841778e-01 4.1152404895969463e-01 3.7968429722956343e-01 5.3391173178946461e-01 4.3599147432852087e-01 4.7144306110972012e-01 5.8831149948805161e-01 4.7848274102226546e-01 5.7214840827538493e-01 5.8427833722628786e-01 7.5913057769296288e-01 2.7467471401949545e-01 3.7358003512394100e-01 3.0871518002237042e-01 4.1688861474763350e-01 5.0222120418367389e-01 6.6048138004987256e-01 3.0258200505455324e-01 3.1794167936227608e-01 1.7239817568391863e-01 1.9666804151461101e-01 2.2619114713952621e-01 2.9097553229295658e-01 2.7670059041309814e-01 4.7064950245877796e-01 3.9484546986317232e-01 4.4054251937725220e-01 5.2514125098393150e-01 4.5521984736157906e-01 5.1035475362910909e-01 5.7906115981186801e-01 7.3216830014341894e-01 7.2335705178823506e-01 9.4313445524549477e-01 5.5854995096643556e-01 1.2828911762626145e+00 1.4709001512575499e+00 1.0578622293432112e+00 7.4557518284241997e-01 7.0357860825988450e-01 6.1777527200660964e-01 7.8494544642429775e-01 8.4946570043837566e-01 4.9968246062375621e-01 2.9167397193181988e-01 2.5440249774212775e-01 1.6686758460823897e-01 9.3484172907793117e-01 5.7046127521930423e-01 3.3216436012083528e-01 3.4364472899964926e-01 4.6667033717729300e-01 1.5938354463043301e+00 1.7830705733374290e+00 1.7236489925441785e+00 1.7315695832335809e+00 1.4858223193363473e+00 1.3240275482220327e+00 1.2142837175635921e+00 1.1153201158662860e+00 1.6468827838467606e+00 1.6603104337782173e+00 1.6254226205975146e+00 1.5799553292022999e+00 1.6330862491285139e+00 1.7100530918019641e+00 1.4210683413084337e+00 1.7974318500641728e+00 1.6572935724487725e+00 1.3849207448333751e+00 1.7719388700683751e+00 1.3584737432562926e+00 1.7896872318473205e+00 1.6710877489543305e+00 1.8448616061277705e+00 1.3686164989158216e+00 1.3398725655554420e+00 1.0904801573669680e+00 1.0583268727010307e+00 9.6861761717519590e-01 1.0460810807845795e+00 8.8049215110583545e-01 7.8744991772758899e-01 6.9053934677524609e-01 1.1121555244708436e+00 9.8896031853794764e-01 9.0534179089056488e-01 8.4617067516771993e-01 1.0550516439432327e+00 1.1984132955523408e+00 6.2282703921008942e-01 7.4366008948440332e-01 2.9967901838448596e-01 1.3650277031848863e+00 3.1179625478762990e-01 3.8801031884656667e-01 3.1693824239826807e-01 1.8768136857746320e+00 1.8641138118523299e+00 1.6842114920290610e+00 1.5228880684054018e+00 1.8479040512785951e+00 3.6390153710503581e-02 8.2654126453465204e-02 1.5314323557218992e-01 4.5138521911870511e-01 4.8369920111485487e-01 2.8807513633612880e-01 1.3218298750608259e-01 2.1777393389755967e-01 1.8764291351055101e-01 1.7939507336285252e+00 1.6391631362572068e+00 1.8167982000205340e+00 1.8488850318871215e+00 1.3697939691519365e+00 5.8093432651477195e-01 5.2385019020943169e-01 4.4102991635202576e-01 2.9813428553724658e-01 5.7169646598118795e-02 1.0174047907089999e-01 7.8844844808285908e-01 8.9682716624977354e-01 9.4502266119779943e-01 6.3568304253266567e-02 1.6556285025228830e+00 1.6984204945766272e+00 1.7351552755000808e+00 1.8512348676091943e+00 1.7357299214200621e+00 4.9410157266116229e-02 4.0184138837523031e-01 3.3600079654438231e-01 2.3009684427251179e-01 2.5730090964180552e-01 1.3915320312548796e-01 1.6490382469057270e+00 1.5195573797830670e+00 1.6617873157890064e+00 1.5896180091997552e+00 1.4290595788976370e+00 1.5819098655053905e+00 1.3681811258531189e+00 1.6643365885718611e+00 1.7105870942523893e+00 1.7948692647656772e+00 1.5181890002494054e+00 8.4631982053517588e-02 9.0866600002274067e-01 8.5457923228952015e-01 1.0350059575625028e+00 1.2017853665442775e+00 1.2000901656723941e+00 1.1688193745303490e+00 1.1067420923442233e+00 1.0135380256786863e+00 7.6312219231481726e-01 5.7156089965114409e-01 5.2120623038500158e-01 4.5074850218814261e-01 2.5459813167710055e-01 3.8846601174323686e-01 2.9611634375791651e-01 8.3609593222084944e-02 7.9078340279477050e-02 1.5536675331810909e-01 6.7806433702092578e-02 1.1928624227881013e-01 1.6044925333310903e-01 2.9201581720230041e-01 3.6233109590263701e-01 4.6951031625018391e-01 3.7180310006355743e-01 4.8830720594066879e-01 5.6866886815550655e-01 5.5617805077246629e-01 6.7675062899431149e-01 1.6585330500351305e+00 1.7832827043854924e+00 1.7693634074476294e+00 3.0561943005941344e-01 3.3820171138770494e-01 2.4035864187127234e-01 1.2728030828950815e-01 1.5945540172836725e-01 6.0779325516500315e-01 1.5861439565628674e+00 1.5749287029244221e+00 1.6986428402515470e+00 2.8753324905012834e-01 2.5862896124235246e-01 4.7516157784763524e-01 5.6178158614932405e-01 4.1825344090774025e-01 3.9220995562177741e-01 9.8689173205993863e-01 7.5095774583487196e-01 8.9975128625882961e-01 1.2583492616674037e+00 1.3981696919683060e+00 1.0258249071456431e+00 9.8102966942636949e-01 1.1516526488192818e+00 1.2342551064464873e+00 1.5744038878077187e+00 1.4153499210402227e+00 1.5236661136445808e+00 1.3592126013226582e+00 1.2506471946959248e+00 1.2080290777481633e+00 1.5252057904798146e+00 1.4682412445010100e+00 1.1011966266233220e+00 1.2806637337997655e+00 1.2880245131615751e+00 1.5367718256376286e+00 1.5509397727108738e+00 1.3792206872197406e+00 1.2856159753849616e+00 1.3930342167082559e+00 1.3148516461868920e+00 1.3155721992961893e+00 1.1601155689441249e+00 8.8949095714424464e-01 1.1835899854792853e+00 1.0193173824491808e+00 1.4538143898167921e+00 1.4833708503123648e+00 1.3245883342862166e+00 1.5178488825010215e+00 1.4505740348715492e+00 1.2232665076447193e+00 6.6847064692035674e-01 8.9806887575119532e-01 7.1704584660751070e-01 1.2698340219543454e+00 1.4530392083593793e+00 1.1755897153549220e+00 1.4420221418232821e+00 1.3540053480208103e+00 8.1604351853352353e-01 1.2124028277109762e+00 1.4911339986280214e+00 1.3290120660948004e+00 1.1158346000706858e+00 1.1292619421514405e+00 1.1947214605368037e+00 1.1068785472065039e+00 1.0347584399102991e+00 9.4385692390320342e-01 3.5943724368861341e-01 2.5881420762529406e-01 1.7663225058812432e-01 1.6727604885915820e-01 6.6607357234728923e-02 2.4909053760343726e-02 6.6753119798526207e-03 7.4785154896468031e-02 1.3620910780230930e-01 1.0219006696323385e-01 4.4769288420906528e-01 3.6096704324751200e-01 4.5010637398448322e-01 5.1331420641907544e-02 2.0229006780494535e-01 1.8479422913254440e-01 4.5450321907012925e-01 7.4324427953208216e-01 5.2084565497993263e-01 4.2055773307055405e-01 2.4237772272585584e-01 5.2014532363658550e-01 7.2276300836325941e-02 1.9317113425746760e-01 1.5997954267903403e-01 1.4211438330851025e+00 1.5798125796534268e+00 1.5444757561506606e+00 1.6599202819645251e+00 1.7749361802939132e+00 5.4685133861370960e-01 2.3009063162582055e-01 7.3049220480743715e-01 7.0764759117628451e-01 6.0635992129639615e-01 3.8966785338692056e-01 3.7038450700122938e-01 3.0377008623146423e-01 6.6802882700101662e-01 4.8845123683844982e-01 4.8191639736157688e-01 4.1278062533996451e-01 7.2058632095315578e-01 6.4779652044073099e-01 6.5720164991474883e-01 1.8069435406732137e-01 9.3469865805090563e-02 2.8162322201451812e-01 4.2012333492738141e-01 7.2017185374819948e-01 6.0109072947685860e-01 6.2944296928357701e-01 4.8869933223278439e-01 4.0703150276876265e-01 6.2700976140965814e-01 9.0150746223167677e-01 5.7028950755164698e-01 7.9498696647492495e-01 3.8631187342983753e-01 1.4771288889968553e-01 7.1446363036695396e-02 7.1187397154993448e-01 7.1539758000467923e-01 1.1172305969616456e-01 5.5250766269215122e-02 6.1810185539009944e-02 2.1649736240307832e-01 2.4620616897432229e-01 4.5496281589525867e-01 3.3172071085768517e-01 5.5736209346077414e-01 3.6691162702253949e-01 2.4087917792040217e-01 4.2070413517071331e-02 1.2346825318593155e+00 7.0697101392074135e-02 1.3046075237126558e+00 8.3683974572791431e-01 7.5588485519453030e-01 7.0774502345863799e-01 7.9016824966254329e-01 5.7982548392574884e-01 1.2254522343414345e+00 1.0824771757498661e+00 1.0652549393285371e+00 9.5366021347806429e-01 9.5660664173644094e-01 2.0946248685651192e-01 1.2677525486896729e-01 2.7656631491751960e-01 3.1355991914676529e-01 3.6793600080386346e-01 3.5097241366559456e-01 4.0410859542467903e-01 2.2812065744003612e-01 1.0767535135815383e+00 1.0918332906343067e+00 1.1818015201653678e+00 1.0326294544054717e+00 8.6452664851926153e-01 8.5057981232795921e-01 7.3797765571414708e-01 8.2240747262775726e-01 5.0355817679485537e-01 6.9351677804180856e-01 6.6720465265123985e-01 7.5307341619680845e-01 9.7636793843425806e-01 9.0638847202026152e-01 8.8811767599121172e-01 9.1932354479160461e-01 1.0786095174409087e+00 9.3449342351803866e-01 1.1810277223535270e+00 1.4734948681890687e+00 1.4240081964495630e+00 1.3354030041465612e+00 1.2517728334449747e+00 1.1677126988248174e+00 6.9938440616709929e-01 3.2553555019454772e-01 7.6083076085180834e-01 6.9707595079691442e-01 7.5993522096322830e-01 6.1164544557848644e-01 8.1145570284612578e-01 1.1350535273940023e+00 7.8903822828665571e-01 8.5589842017393114e-01 7.3899682768669406e-01 6.6722160666095942e-01 6.6640071003724555e-01 6.4122530457931726e-01 9.7648651372078665e-01 9.1249419511244878e-01 9.4246161365586434e-01 6.7637945863704863e-01 1.0137630932243626e+00 1.1306831532060790e+00 9.3201042302977122e-01 8.6789115219394897e-01 9.1836443299359871e-01 1.1952828227978713e+00 1.2214030989516389e+00 1.1599138851128465e+00 1.0303011759491383e+00 1.0744548007780013e+00 1.0717482808861778e+00 1.0831101734046449e+00 1.0606865170350579e+00 1.0082572468139936e+00 1.0509962786686877e+00 1.1163645760242868e+00 1.1170702567381667e+00 1.0311327294506345e+00 8.7456470262526453e-01 8.7694201634860736e-01 8.4124041383164672e-01 8.7592744615479923e-01 1.0476318063998491e+00 9.2050506393741349e-01 1.0528449015597623e+00 1.0260964582387733e+00 1.0047592596294308e+00 9.8354166074851546e-01 9.6916616714996628e-01 9.8437121651693649e-01 9.4618528719486528e-01 9.9194001489516381e-01 9.8148761194657363e-01 9.8669298767867797e-01 9.9940272014704390e-01 9.4807531491083052e-01 9.4133885387202088e-01 9.9842772235042077e-01 1.0155029336662504e+00 9.8915667443133803e-01 9.7293321181198733e-01 9.6105579742759450e-01 9.6588153798273679e-01 1.0283871530834334e+00 1.0355664243733385e+00 9.8746330732729048e-01 1.0200042768263369e+00 9.9585414045903309e-01 9.9307028543286746e-01 9.9642470797861926e-01 1.0786572276461017e+00 1.0944397819509781e+00 1.0226773388741539e+00 1.0281746704598129e+00 1.0407739231592079e+00 1.0208495728424580e+00 9.6991634493610479e-01 9.7807922402105973e-01 9.9720637628604591e-01 1.0046526907756699e+00 9.3112680333555775e-01 9.9319773923736077e-01 9.9666527437922037e-01 9.9768445575869724e-01 1.0009191808922202e+00 1.0108393057070395e+00 1.0099277843254688e+00 1.0025106487767961e+00 1.0095830975389501e+00 1.0171986900914880e+00 1.0080914628356865e+00 9.9855952669145731e-01 9.9819123930996101e-01 9.7581784856723808e-01 9.9305834365392376e-01 9.8689673463945204e-01 9.8536425858830190e-01 9.9136436030931752e-01 9.9759880304909365e-01 9.9930497238918714e-01 1.0032121838241903e+00 1.0050862845310486e+00 1.0072324853384405e+00 9.9976353724584488e-01 9.9732479661162887e-01 9.0625394485596633e-01 9.4876192966984219e-01 9.1749214641006516e-01 9.5496695674951804e-01 9.3741695178067852e-01 9.2439404391309254e-01 9.7352587870510310e-01 9.7483981019270516e-01 9.9048729472823949e-01 9.5355211407332319e-01 9.7373269640952353e-01 9.7293806749173273e-01 9.2846299330810123e-01 1.0408600311541538e+00 1.0226495821582033e+00 9.6132888975455821e-01 9.8544034789390933e-01 1.0110817753280867e+00 9.9786254686055931e-01 1.0157491120666668e+00 1.0484985399639055e+00 8.8941511564650755e-01 1.0292027295429467e+00 8.3622673637270462e-01 8.5383270382202348e-01 8.1077702716483968e-01 8.1259885804938592e-01 8.9728164383357134e-01 9.3703128461710539e-01 9.2714607586541109e-01 9.4461911974821522e-01 9.6551941199782920e-01 9.4496495324708341e-01 9.6378492213229927e-01 9.6112217415937629e-01 8.9088692780727818e-01 1.0773432399261589e+00 1.0921525731652526e+00 1.0456939936862870e+00 1.0104880572658810e+00 1.0567372143309648e+00 1.0520661121211576e+00 9.7715502244194474e-01 9.9186709263369466e-01 9.7520318286541596e-01 9.4893597753968395e-01 9.6779679291487408e-01 9.5019769122492526e-01 9.2005983648047085e-01 9.1192346656318768e-01 9.0069986411366254e-01 9.7957015587200336e-01 9.7789768407176292e-01 9.9046718150273039e-01 1.0005156801834074e+00 1.0032226203704826e+00 1.0084286183960605e+00 1.0126430992800612e+00 9.6250313532220844e-01 9.5088788264345436e-01 9.6470729855250892e-01 1.0203603910245027e+00 1.0615318383905745e+00 1.0367965313719179e+00 1.0609012555034820e+00 1.0790896224395032e+00 1.0142383109696591e+00 1.0239147611987784e+00 9.9082417620012775e