<?xml version="1.0"?>
<VTKFile type="UnstructuredGrid"  byte_order="LittleEndian">
<UnstructuredGrid>
<Piece NumberOfPoints="1303" NumberOfCells=" 2608">
<Points>
<DataArray type="Float32" NumberOfComponents="3" format="ascii">
35.515362 -1.507447 0.000000 29.982779 -1.531485 0.000000 0.251700 -4.245668 0.000000 36.250336 -4.245668 0.000000 0.251700 4.738848 0.000000 36.250336 4.738848 0.000000 35.509796 -1.395912 0.000000 35.493153 -1.285485 0.000000 35.465595 -1.177265 0.000000 35.427402 -1.072325 0.000000 35.378948 -0.971711 0.000000 35.320717 -0.876420 0.000000 35.253288 -0.787401 0.000000 35.177330 -0.705539 0.000000 35.093597 -0.631646 0.000000 35.002926 -0.566457 0.000000 34.906216 -0.510620 0.000000 34.804420 -0.464690 0.000000 34.698563 -0.429123 0.000000 34.589691 -0.404273 0.000000 34.478882 -0.390387 0.000000 34.367245 -0.387603 0.000000 34.255882 -0.395948 0.000000 34.145905 -0.415340 0.000000 34.038403 -0.445586 0.000000 33.934448 -0.486385 0.000000 33.835075 -0.537332 0.000000 33.741264 -0.597920 0.000000 33.653954 -0.667548 0.000000 33.574013 -0.745523 0.000000 33.502228 -0.831070 0.000000 33.439320 -0.923339 0.000000 33.385910 -1.021414 0.000000 33.342533 -1.124319 0.000000 33.309616 -1.231031 0.000000 33.287491 -1.340491 0.000000 33.276371 -1.451610 0.000000 33.276371 -1.563284 0.000000 33.287491 -1.674403 0.000000 33.309616 -1.783863 0.000000 33.342533 -1.890575 0.000000 33.385910 -1.993480 0.000000 33.439320 -2.091555 0.000000 33.502228 -2.183824 0.000000 33.574013 -2.269371 0.000000 33.653954 -2.347346 0.000000 33.741264 -2.416974 0.000000 33.835075 -2.477562 0.000000 33.934448 -2.528509 0.000000 34.038403 -2.569308 0.000000 34.145905 -2.599554 0.000000 34.255882 -2.618946 0.000000 34.367245 -2.627291 0.000000 34.478882 -2.624507 0.000000 34.589691 -2.610621 0.000000 34.698563 -2.585771 0.000000 34.804420 -2.550205 0.000000 34.906216 -2.504275 0.000000 35.002926 -2.448438 0.000000 35.093597 -2.383249 0.000000 35.177330 -2.309355 0.000000 35.253288 -2.227493 0.000000 35.320717 -2.138474 0.000000 35.378948 -2.043184 0.000000 35.427402 -1.942569 0.000000 35.465595 -1.837630 0.000000 35.493153 -1.729409 0.000000 35.509796 -1.618982 0.000000 29.978630 -1.448372 0.000000 29.966228 -1.366085 0.000000 29.945694 -1.285442 0.000000 29.917233 -1.207245 0.000000 29.881126 -1.132269 0.000000 29.837734 -1.061262 0.000000 29.787487 -0.994927 0.000000 29.730886 -0.933925 0.000000 29.668491 -0.878862 0.000000 29.600925 -0.830285 0.000000 29.528858 -0.788677 0.000000 29.453007 -0.754451 0.000000 29.374123 -0.727948 0.000000 29.292994 -0.709430 0.000000 29.210423 -0.699083 0.000000 29.127232 -0.697008 0.000000 29.044249 -0.703227 0.000000 28.962296 -0.717678 0.000000 28.882191 -0.740216 0.000000 28.804726 -0.770618 0.000000 28.730675 -0.808582 0.000000 28.660770 -0.853731 0.000000 28.595709 -0.905616 0.000000 28.536139 -0.963720 0.000000 28.482647 -1.027468 0.000000 28.435770 -1.096224 0.000000 28.395971 -1.169307 0.000000 28.363647 -1.245989 0.000000 28.339119 -1.325508 0.000000 28.322630 -1.407074 0.000000 28.314344 -1.489877 0.000000 28.314344 -1.573093 0.000000 28.322630 -1.655896 0.000000 28.339119 -1.737463 0.000000 28.363647 -1.816982 0.000000 28.395971 -1.893664 0.000000 28.435770 -1.966746 0.000000 28.482647 -2.035503 0.000000 28.536139 -2.099250 0.000000 28.595709 -2.157355 0.000000 28.660770 -2.209239 0.000000 28.730675 -2.254388 0.000000 28.804726 -2.292352 0.000000 28.882191 -2.322754 0.000000 28.962296 -2.345293 0.000000 29.044249 -2.359743 0.000000 29.127232 -2.365962 0.000000 29.210423 -2.363887 0.000000 29.292994 -2.353540 0.000000 29.374123 -2.335022 0.000000 29.453007 -2.308519 0.000000 29.528858 -2.274293 0.000000 29.600925 -2.232685 0.000000 29.668491 -2.184108 0.000000 29.730886 -2.129045 0.000000 29.787487 -2.068043 0.000000 29.837734 -2.001709 0.000000 29.881126 -1.930701 0.000000 29.917233 -1.855726 0.000000 29.945694 -1.777528 0.000000 29.966228 -1.696885 0.000000 29.978630 -1.614598 0.000000 1.251662 -4.245668 0.000000 2.251624 -4.245668 0.000000 3.251586 -4.245668 0.000000 4.251548 -4.245668 0.000000 5.251511 -4.245668 0.000000 6.251472 -4.245668 0.000000 7.251435 -4.245668 0.000000 8.251397 -4.245668 0.000000 9.251359 -4.245668 0.000000 10.251321 -4.245668 0.000000 11.251284 -4.245668 0.000000 12.251245 -4.245668 0.000000 13.251207 -4.245668 0.000000 14.251170 -4.245668 0.000000 15.251132 -4.245668 0.000000 16.251095 -4.245668 0.000000 17.251057 -4.245668 0.000000 18.251019 -4.245668 0.000000 19.250980 -4.245668 0.000000 20.250942 -4.245668 0.000000 21.250904 -4.245668 0.000000 22.250866 -4.245668 0.000000 23.250830 -4.245668 0.000000 24.250792 -4.245668 0.000000 25.250753 -4.245668 0.000000 26.250715 -4.245668 0.000000 27.250677 -4.245668 0.000000 28.250639 -4.245668 0.000000 29.250603 -4.245668 0.000000 30.250565 -4.245668 0.000000 31.250526 -4.245668 0.000000 32.250488 -4.245668 0.000000 33.250450 -4.245668 0.000000 34.250412 -4.245668 0.000000 35.250374 -4.245668 0.000000 0.251700 3.740568 0.000000 0.251700 2.742289 0.000000 0.251700 1.744009 0.000000 0.251700 0.745730 0.000000 0.251700 -0.252550 0.000000 0.251700 -1.250829 0.000000 0.251700 -2.249109 0.000000 0.251700 -3.247388 0.000000 36.250336 -3.247388 0.000000 36.250336 -2.249109 0.000000 36.250336 -1.250829 0.000000 36.250336 -0.252550 0.000000 36.250336 0.745730 0.000000 36.250336 1.744009 0.000000 36.250336 2.742289 0.000000 36.250336 3.740568 0.000000 35.250374 4.738848 0.000000 34.250412 4.738848 0.000000 33.250450 4.738848 0.000000 32.250488 4.738848 0.000000 31.250526 4.738848 0.000000 30.250565 4.738848 0.000000 29.250603 4.738848 0.000000 28.250639 4.738848 0.000000 27.250677 4.738848 0.000000 26.250715 4.738848 0.000000 25.250753 4.738848 0.000000 24.250792 4.738848 0.000000 23.250830 4.738848 0.000000 22.250866 4.738848 0.000000 21.250904 4.738848 0.000000 20.250942 4.738848 0.000000 19.250980 4.738848 0.000000 18.251019 4.738848 0.000000 17.251057 4.738848 0.000000 16.251095 4.738848 0.000000 15.251132 4.738848 0.000000 14.251170 4.738848 0.000000 13.251207 4.738848 0.000000 12.251245 4.738848 0.000000 11.251284 4.738848 0.000000 10.251321 4.738848 0.000000 9.251359 4.738848 0.000000 8.251397 4.738848 0.000000 7.251435 4.738848 0.000000 6.251472 4.738848 0.000000 5.251511 4.738848 0.000000 4.251548 4.738848 0.000000 3.251586 4.738848 0.000000 2.251624 4.738848 0.000000 1.251662 4.738848 0.000000 24.745350 3.883482 0.000000 24.793875 -3.410513 0.000000 1.209560 0.335058 0.000000 7.751400 -3.379674 0.000000 15.797620 3.870625 0.000000 10.751261 -3.379608 0.000000 18.778591 -3.385581 0.000000 21.803268 -3.344795 0.000000 31.684597 3.861827 0.000000 5.751492 3.872855 0.000000 13.751072 -3.379523 0.000000 27.618042 3.891025 0.000000 8.789914 3.921510 0.000000 20.684864 3.896229 0.000000 12.751488 3.872645 0.000000 4.782918 -3.443802 0.000000 29.764137 3.756001 0.000000 18.746214 3.904266 0.000000 16.746046 -3.382144 0.000000 22.803379 3.906737 0.000000 3.751567 3.872855 0.000000 10.751401 3.872597 0.000000 28.896051 -2.397696 0.000000 33.637310 -2.457773 0.000000 33.819775 -2.597140 0.000000 34.065960 -2.677529 0.000000 34.312901 -2.738527 0.000000 34.536385 -2.737515 0.000000 34.782295 -2.659664 0.000000 35.010506 -2.571002 0.000000 35.226414 -2.439235 0.000000 35.364094 -2.241379 0.000000 35.555847 -2.055593 0.000000 35.582184 -1.852523 0.000000 35.641205 -1.568050 0.000000 33.735531 3.881693 0.000000 2.797378 -3.451962 0.000000 26.860106 -3.480139 0.000000 28.583307 -2.239642 0.000000 29.358732 -2.423851 0.000000 31.750507 -3.379675 0.000000 33.324112 -2.090715 0.000000 33.479027 -2.290646 0.000000 35.506306 1.343481 0.000000 34.546986 -0.295339 0.000000 34.765987 -0.360878 0.000000 35.021271 -0.445871 0.000000 35.223282 -0.585668 0.000000 35.364094 -0.773516 0.000000 35.468903 -0.937424 0.000000 1.194840 2.186686 0.000000 1.143576 -1.749278 0.000000 29.761053 -3.413898 0.000000 29.601410 -2.332195 0.000000 28.921762 -3.636739 0.000000 35.434757 0.332922 0.000000 27.939034 -3.322807 0.000000 28.575821 -2.965013 0.000000 35.491787 3.187509 0.000000 1.817845 3.822155 0.000000 30.660900 -3.501851 0.000000 30.224859 -2.857117 0.000000 29.874002 -2.086071 0.000000 35.585514 -1.193355 0.000000 33.750431 -3.509560 0.000000 34.532005 -3.491499 0.000000 32.880535 -3.441118 0.000000 33.295013 -3.096639 0.000000 25.664181 -3.428929 0.000000 25.375696 -2.629852 0.000000 24.438637 -2.620636 0.000000 24.910978 -1.956720 0.000000 25.651587 -1.916295 0.000000 25.323690 -1.346799 0.000000 24.572147 -1.212230 0.000000 25.973427 -1.346464 0.000000 25.680389 -0.783520 0.000000 26.253654 -0.824030 0.000000 25.998541 -0.285823 0.000000 26.590271 -0.317536 0.000000 28.303307 -1.171617 0.000000 26.313904 0.194136 0.000000 26.877100 0.190222 0.000000 25.717855 0.281536 0.000000 28.397587 -1.018056 0.000000 26.617212 0.655783 0.000000 27.169964 0.627885 0.000000 26.555027 -1.365139 0.000000 28.279402 -1.799416 0.000000 28.233358 -1.528104 0.000000 28.260235 -1.352011 0.000000 28.349903 -1.966128 0.000000 27.359739 0.210468 0.000000 27.705618 0.538601 0.000000 28.657124 -0.771081 0.000000 28.513481 -0.880901 0.000000 27.497627 1.085491 0.000000 27.997622 0.984096 0.000000 28.202913 0.550136 0.000000 28.900204 -0.656317 0.000000 28.462269 0.912228 0.000000 28.613104 0.520256 0.000000 28.870144 0.836079 0.000000 29.172134 -0.622444 0.000000 29.006077 0.437466 0.000000 29.245691 0.764488 0.000000 29.392076 0.433774 0.000000 29.612940 0.724567 0.000000 29.745127 0.354216 0.000000 29.948631 0.658777 0.000000 30.085154 0.347384 0.000000 30.279308 0.598547 0.000000 30.396652 0.307071 0.000000 30.599598 0.552634 0.000000 30.701044 0.262935 0.000000 30.913961 0.504364 0.000000 31.005733 0.178364 0.000000 33.197140 -1.384179 0.000000 31.218945 0.456185 0.000000 33.844940 -0.427593 0.000000 33.547527 -0.633512 0.000000 33.275105 -1.035300 0.000000 31.313152 0.170995 0.000000 31.506193 0.409924 0.000000 29.872244 -0.985129 0.000000 31.158665 -0.05
[...]
<CellData Scalars="Label">
<DataArray type="Int32" Name="Label" format="ascii">
1 1 1 1 1 1 1 1 1 1 1 1 1 1 1 1 1 1 1 1 1 1 1 1 1 1 1 1 1 1 1 1 1 1 1 1 1 1 1 1 1 1 1 1 1 1 1 1 1 1 1 1 1 1 1 1 1 1 1 1 1 1 1 1 1 1 1 1 1 1 1 1 1 1 1 1 1 1 1 1 1 1 1 1 1 1 1 1 1 1 1 1 1 1 1 1 1 1 1 1 1 1 1 1 1 1 1 1 1 1 1 1 1 1 1 1 1 1 1 1 1 1 1 1 1 1 1 1 1 1 1 1 1 1 1 1 1 1 1 1 1 1 1 1 1 1 1 1 1 1 1 1 1 1 1 1 1 1 1 1 1 1 1 1 1 1 1 1 1 1 1 1 1 1 1 1 1 1 1 1 1 1 1 1 1 1 1 1 1 1 1 1 1 1 1 1 1 1 1 1 1 1 1 1 1 1 1 1 1 1 1 1 1 1 1 1 1 1 1 1 1 1 1 1 1 1 1 1 1 1 1 1 1 1 1 1 1 1 1 1 1 1 1 1 1 1 1 1 1 1 1 1 1 1 1 1 1 1 1 1 1 1 1 1 1 1 1 1 1 1 1 1 1 1 1 1 1 1 1 1 1 1 1 1 1 1 1 1 1 1 1 1 1 1 1 1 1 1 1 1 1 1 1 1 1 1 1 1 1 1 1 1 1 1 1 1 1 1 1 1 1 1 1 1 1 1 1 1 1 1 1 1 1 1 1 1 1 1 1 1 1 1 1 1 1 1 1 1 1 1 1 1 1 1 1 1 1 1 1 1 1 1 1 1 1 1 1 1 1 1 1 1 1 1 1 1 1 1 1 1 1 1 1 1 1 1 1 1 1 1 1 1 1 1 1 1 1 1 1 1 1 1 1 1 1 1 1 1 1 1 1 1 1 1 1 1 1 1 1 1 1 1 1 1 1 1 1 1 1 1 1 1 1 1 1 1 1 1 1 1 1 1 1 1 1 1 1 1 1 1 1 1 1 1 1 1 1 1 1 1 1 1 1 1 1 1 1 1 1 1 1 1 1 1 1 1 1 1 1 1 1 1 1 1 1 1 1 1 1 1 1 1 1 1 1 1 1 1 1 1 1 1 1 1 1 1 1 1 1 1 1 1 1 1 1 1 1 1 1 1 1 1 1 1 1 1 1 1 1 1 1 1 1 1 1 1 1 1 1 1 1 1 1 1 1 1 1 1 1 1 1 1 1 1 1 1 1 1 1 1 1 1 1 1 1 1 1 1 1 1 1 1 1 1 1 1 1 1 1 1 1 1 1 1 1 1 1 1 1 1 1 1 1 1 1 1 1 1 1 1 1 1 1 1 1 1 1 1 1 1 1 1 1 1 1 1 1 1 1 1 1 1 1 1 1 1 1 1 1 1 1 1 1 1 1 1 1 1 1 1 1 1 1 1 1 1 1 1 1 1 1 1 1 1 1 1 1 1 1 1 1 1 1 1 1 1 1 1 1 1 1 1 1 1 1 1 1 1 1 1 1 1 1 1 1 1 1 1 1 1 1 1 1 1 1 1 1 1 1 1 1 1 1 1 1 1 1 1 1 1 1 1 1 1 1 1 1 1 1 1 1 1 1 1 1 1 1 1 1 1 1 1 1 1 1 1 1 1 1 1 1 1 1 1 1 1 1 1 1 1 1 1 1 1 1 1 1 1 1 1 1 1 1 1 1 1 1 1 1 1 1 1 1 1 1 1 1 1 1 1 1 1 1 1 1 1 1 1 1 1 1 1 1 1 1 1 1 1 1 1 1 1 1 1 1 1 1 1 1 1 1 1 1 1 1 1 1 1 1 1 1 1 1 1 1 1 1 1 1 1 1 1 1 1 1 1 1 1 1 1 1 1 1 1 1 1 1 1 1 1 1 1 1 1 1 1 1 1 1 1 1 1 1 1 1 1 1 1 1 1 1 1 1 1 1 1 1 1 1 1 1 1 1 1 1 1 1 1 1 1 1 1 1 1 1 1 1 1 1 1 1 1 1 1 1 1 1 1 1 1 1 1 1 1 1 1 1 1 1 1 1 1 1 1 1 1 1 1 1 1 1 1 1 1 1 1 1 1 1 1 1 1 1 1 1 1 1 1 1 1 1 1 1 1 1 1 1 1 1 1 1 1 1 1 1 1 1 1 1 1 1 1 1 1 1 1 1 1 1 1 1 1 1 1 1 1 1 1 1 1 1 1 1 1 1 1 1 1 1 1 1 1 1 1 1 1 1 1 1 1 1 1 1 1 1 1 1 1 1 1 1 1 1 1 1 1 1 1 1 1 1 1 1 1 1 1 1 1 1 1 1 1 1 1 1 1 1 1 1 1 1 1 1 1 1 1 1 1 1 1 1 1 1 1 1 1 1 1 1 1 1 1 1 1 1 1 1 1 1 1 1 1 1 1 1 1 1 1 1 1 1 1 1 1 1 1 1 1 1 1 1 1 1 1 1 1 1 1 1 1 1 1 1 1 1 1 1 1 1 1 1 1 1 1 1 1 1 1 1 1 1 1 1 1 1 1 1 1 1 1 1 1 1 1 1 1 1 1 1 1 1 1 1 1 1 1 1 1 1 1 1 1 1 1 1 1 1 1 1 1 1 1 1 1 1 1 1 1 1 1 1 1 1 1 1 1 1 1 1 1 1 1 1 1 1 1 1 1 1 1 1 1 1 1 1 1 1 1 1 1 1 1 1 1 1 1 1 1 1 1 1 1 1 1 1 1 1 1 1 1 1 1 1 1 1 1 1 1 1 1 1 1 1 1 1 1 1 1 1 1 1 1 1 1 1 1 1 1 1 1 1 1 1 1 1 1 1 1 1 1 1 1 1 1 1 1 1 1 1 1 1 1 1 1 1 1 1 1 1 1 1 1 1 1 1 1 1 1 1 1 1 1 1 1 1 1 1 1 1 1 1 1 1 1 1 1 1 1 1 1 1 1 1 1 1 1 1 1 1 1 1 1 1 1 1 1 1 1 1 1 1 1 1 1 1 1 1 1 1 1 1 1 1 1 1 1 1 1 1 1 1 1 1 1 1 1 1 1 1 1 1 1 1 1 1 1 1 1 1 1 1 1 1 1 1 1 1 1 1 1 1 1 1 1 1 1 1 1 1 1 1 1 1 1 1 1 1 1 1 1 1 1 1 1 1 1 1 1 1 1 1 1 1 1 1 1 1 1 1 1 1 1 1 1 1 1 1 1 1 1 1 1 1 1 1 1 1 1 1 1 1 1 1 1 1 1 1 1 1 1 1 1 1 1 1 1 1 1 1 1 1 1 1 1 1 1 1 1 1 1 1 1 1 1 1 1 1 1 1 1 1 1 1 1 1 1 1 1 1 1 1 1 1 1 1 1 1 1 1 1 1 1 1 1 1 1 1 1 1 1 1 1 1 1 1 1 1 1 1 1 1 1 1 1 1 1 1 1 1 1 1 1 1 1 1 1 1 1 1 1 1 1 1 1 1 1 1 1 1 1 1 1 1 1 1 1 1 1 1 1 1 1 1 1 1 1 1 1 1 1 1 1 1 1 1 1 1 1 1 1 1 1 1 1 1 1 1 1 1 1 1 1 1 1 1 1 1 1 1 1 1 1 1 1 1 1 1 1 1 1 1 1 1 1 1 1 1 1 1 1 1 1 1 1 1 1 1 1 1 1 1 1 1 1 1 1 1 1 1 1 1 1 1 1 1 1 1 1 1 1 1 1 1 1 1 1 1 1 1 1 1 1 1 1 1 1 1 1 1 1 1 1 1 1 1 1 1 1 1 1 1 1 1 1 1 1 1 1 1 1 1 1 1 1 1 1 1 1 1 1 1 1 1 1 1 1 1 1 1 1 1 1 1 1 1 1 1 1 1 1 1 1 1 1 1 1 1 1 1 1 1 1 1 1 1 1 1 1 1 1 1 1 1 1 1 1 1 1 1 1 1 1 1 1 1 1 1 1 1 1 1 1 1 1 1 1 1 1 1 1 1 1 1 1 1 1 1 1 1 1 1 1 1 1 1 1 1 1 1 1 1 1 1 1 1 1 1 1 1 1 1 1 1 1 1 1 1 1 1 1 1 1 1 1 1 1 1 1 1 1 1 1 1 1 1 1 1 1 1 1 1 1 1 1 1 1 1 1 1 1 1 1 1 1 1 1 1 1 1 1 1 1 1 1 1 1 1 1 1 1 1 1 1 1 1 1 1 1 1 1 1 1 1 1 1 1 1 1 1 1 1 1 1 1 1 1 1 1 1 1 1 1 1 1 1 1 1 1 1 1 1 1 1 1 1 1 1 1 1 1 1 1 1 1 1 1 1 1 1 1 1 1 1 1 1 1 1 1 1 1 1 1 1 1 1 1 1 1 1 1 1 1 1 1 1 1 1 1 1 1 1 1 1 1 1 1 1 1 1 1 1 1 1 1 1 1 1 1 1 1 1 1 1 1 1 1 1 1 1 1 1 1 1 1 1 1 1 1 1 1 1 1 1 1 1 1 1 1 1 1 1 1 1 1 1 1 1 1 1 1 1 1 1 1 1 1 1 1 1 1 1 1 1 1 1 1 1 1 1 1 1 1 1 1 1 1 1 1 1 1 1 1 1 1 1 1 1 1 1 1 1 1 1 1 1 1 1 1 1 1 1 1 1 1 1 1 1 1 1 1 1 1 1 1 1 1 1 1 1 1 1 1 1 1 1 1 1 1 1 1 1 1 1 1 1 1 1 1 1 1 1 1 1 1 1 1 1 1 1 1 1 1 1 1 1 1 1 1 1 1 1 1 1 1 1 1 1 1 1 1 1 1 1 1 1 1 1 1 1 1 1 1 1 1 1 1 1 1 1 1 1 1 1 1 1 1 1 1 1 1 1 1 1 1 1 1 1 1 1 1 1 1 1 1 1 1 1 1 1 1 1 1 1 1 1 1 1 1 1 1 1 1 1 1 1 1 1 1 1 1 1 1 1 1 1 1 1 1 1 1 1 1 1 1 1 1 1 1 1 1 1 1 1 1 1 1 1 1 1 1 1 1 1 1 1 1 1 1 1 1 1 1 1 1 1 1 1 1 1 1 1 1 1 1 1 1 1 1 1 1 1 1 1 1 1 1 1 1 1 1 1 1 1 1 1 1 1 1 1 1 1 1 1 1 1 1 1 1 1 1 1 1 1 1 1 1 1 1 1 1 1 1 1 1 1 1 1 1 1 1 1 1 1 1 1 1 1 1 1 1 1 1 1 1 1 1 1 1 1 1 1 1 1 1 1 1 1 1 1 1 1 1 1 1 1 1 1 1 1 1 1 1 1 1 1 1 1 1 1 1 1 1 1 1 1 1 1 1 1 1 1 1 1 1 1 1 1 1 1 1 1 1 5 5 5 5 5 5 5 5 5 5 5 5 5 5 5 5 5 5 5 5 5 5 5 5 5 5 5 5 5 5 5 5 5 5 5 5 5 5 5 5 5 5 5 5 5 5 5 5 5 5 5 5 5 5 5 5 5 5 5 5 5 5 5 5 5 5 5 5 5 5 5 5 5 5 5 5 5 5 5 5 5 5 5 5 5 5 5 5 5 5 5 5 5 5 5 5 5 5 5 5 5 5 5 5 5 5 5 5 5 5 5 5 5 5 5 5 5 5 5 5 5 5 5 5 5 5 4 4 4 4 4 4 4 4 4 4 4 4 4 4 4 4 4 4 4 4 4 4 4 4 4 4 4 4 4 4 4 4 4 4 4 4 2 2 2 2 2 2 2 2 2 3 3 3 3 3 3 3 3 3 4 4 4 4 4 4 4 4 4 4 4 4 4 4 4 4 4 4 4 4 4 4 4 4 4 4 4 4 4 4 4 4 4 4 4 4 
</DataArray>
<DataArray type="Float64" Name="u" NumberOfComponents="1" format="ascii">
-3.3756544924386928e-04 2.2607108137101973e-02 3.9433799766300940e-03 2.8577345389838430e-03 1.4132708383526279e-03 6.9552389816212401e-01 3.1719214757134062e-01 9.9993208549167312e-01 2.2030256567457160e-01 3.1961057528349289e-02 6.3146695841251543e-01 3.2709416215905471e-03 4.2545729893544110e-01 2.5401632114431688e-01 8.2354148531207816e-01 1.4532986691001724e+00 1.2152357384366366e-01 4.2814981167057475e-01 4.7043756168205567e-02 4.5087409934956957e-01 8.7672294080595375e-02 3.8441733316074278e-01 8.3392463562968167e-01 1.3692969442481334e-01 4.0613522185982465e-02 5.9653393767560381e-01 9.6654823320493544e-01 4.7313736200324008e-01 5.9025438595933948e-02 1.0593242093679701e-01 4.8704701997255628e-01 4.5589176247557905e-01 2.3812341082989960e-01 3.5380848225560257e-02 9.6226247730579074e-03 4.8575587996122882e-01 7.1349421400515989e-01 1.2897059081932674e+00 1.6831119339031797e-01 3.1185011494542686e-01 6.1932723169420667e-01 1.9778227115144406e-01 5.5354630507017311e-01 4.9577997076494423e-01 8.7378443550357088e-01 1.3624515901960466e+00 4.2876511327054523e-01 1.4480005324792877e-01 1.3231016077400501e+00 3.1950647824677497e-01 2.0055952210807710e+00 1.0361564857319263e+00 1.4331396315827996e+00 2.0250313090279488e+00 7.8474904738923420e-04 2.7727548185746359e-01 6.0735196258259017e-02 5.1174327457783400e-02 3.2431425343223880e-01 3.3143445386339243e-01 5.8276726358395800e-02 2.8121034532279050e-02 3.8580256708464955e-01 5.9825462020860323e-02 1.2101445980483815e-02 7.6792844200548238e-01 1.5039305736204783e-01 2.0497802867441530e+00 1.0430789345126983e+00 2.8918543522291829e-01 1.9892215625514749e+00 6.7639011531450111e-01 1.3390544027462095e-01 7.1720719318737580e-01 1.4586906090038962e-01 1.6294679117380095e-01 3.0607636399301585e-01 9.2216924309868581e-02 1.0005994049163647e+00 3.2953968243943227e-01 1.0006882421308159e+00 4.4420687611335288e-02 6.5478468404713852e-01 5.1995130836713122e-01 7.8877942620803276e-02 3.0314922160227509e-01 5.0125275175453954e-01 1.3541833739114555e+00 6.4652709513905782e-01 2.1387890588560894e+00 7.3285235014973460e-01 1.3580242139683896e+00 1.5552972838148441e-01 4.5225617472977642e-01 1.0720205514571775e+00 3.3017145796627168e-01 8.7624816224755570e-02 1.9089024134021720e-01 3.7594080949130637e-01 4.9260041679787536e-02 7.2197664566996078e-01 6.1846380105151677e-01 2.5069194067345713e-01 1.4781251092639200e+00 1.4290054372596206e-01 6.5412498982909639e-01 2.1538046646236908e+00 1.0000308156471420e+00 1.2748182396444607e+00 5.3449236961792401e-01 9.9993162051238249e-01 2.1439078444045405e-02 7.7667592706075594e-01 4.3171619552272900e-01 4.8247047731094173e-02 5.2006876608189323e-01 5.1282126823550191e-02 5.9971767098761168e-02 4.9802511518962467e-01 9.3670700329199413e-02 2.3341019491252737e-01 1.4573698281526355e+00 1.3081392654427815e-01 1.0016604124716932e+00 3.4114136925131422e-01 1.0017770593168973e+00 3.3947493711667365e-01 3.1696686981449274e-01 2.1617228726349937e-02 3.6989670690371435e-01 3.3331619804929746e-01 3.8902908329749758e-01 7.1140798117751675e-02 1.0593569037107422e+00 5.1269764193461673e-02 1.6789513640115525e-01 7.7142311445055167e-01 1.1543066337307821e-01 8.1307643040333777e-01 3.1888125949396395e-01 1.1687465979851880e-01 3.5740829286169007e-01 5.7707139299219046e-01 3.5555686940867959e-01 2.7378348675926056e-01 1.0868841038309063e+00 3.2546969524966596e-01 1.4108938777844485e-01 9.9987383417876752e-01 2.1982996937051763e-01 2.1773665230964800e+00 6.9936093481366823e-01 3.4251753041524657e-01 1.6438990811868304e-01 6.6014851724436907e-01 1.3473415981073986e-01 1.1831462164542235e+00 5.0775859517799815e-01 2.6817125798793207e-01 1.2114011157334506e+00 1.2719742436521003e-01 3.1579342872561500e-01 5.9718215170077737e-01 2.2317741037562888e-01 4.7358941573884417e-01 1.7938737456346596e-02 2.2590947715403289e-01 1.4044454954097071e-01 9.7397310019863514e-02 1.3743271139655369e+00 6.2265621382892142e-02 4.7527757391823400e-01 6.2239698818416213e-02 7.3505821819480482e-02 9.2044462037490823e-02 9.3463697048185967e-01 7.3957519073935774e-01 1.1814279828847938e+00 1.0489548488377909e-01 1.9704584322954568e+00 6.2330324558648634e-02 6.9208479612955287e-02 1.5067319945478624e-01 9.6427471772164514e-02 3.9873448347019591e-01 3.8939295571719490e-01 6.1958153620055789e-01 7.5564729064446889e-02 2.4485792468119855e-01 2.4405874434692641e-02 4.1206049607565043e-01 1.0032710239339866e+00 9.7131922450682778e-02 1.0039302835828710e+00 1.3975737611333883e-01 1.3622940258651970e+00 2.9622674081092613e-02 3.4325296252095006e-01 1.7240562730080959e+00 1.0003714598266109e+00 8.3152697231381090e-01 1.7516811864194761e+00 6.0487115511538447e-01 4.7765113653764008e-03 8.9816597409163124e-01 1.0112617181989947e+00 1.0153638285445148e+00 2.6466104759808706e-01 2.5942666964714298e-02 3.4051446879431879e-01 1.1937593663777890e+00 1.2945038059978528e-02 3.2949400690411978e-01 5.4015650994841191e-01 3.6318758203258705e-01 9.9981920979696981e-01 3.8862465731981308e-02 4.6349568211332642e-01 6.1679114748914654e-01 1.2187817122861229e+00 1.0080663254451647e+00 1.3845804613394823e+00 2.0285021228814548e+00 1.8611504864610906e+00 8.1396484623020382e-01 1.6586824329619705e+00 7.5523169103300924e-01 5.1736350487496929e-01 2.1712958707855248e+00 5.9870923964647593e-01 1.1503908231964613e-01 3.3848721503816168e-02 1.5558824209386513e-01 1.5389645053024362e-01 9.9138274139703819e-01 2.3285954042887175e-01 1.4478957150729816e+00 4.1580714744093050e-01 5.7460147167370146e-01 3.0050576280263730e-01 2.6350193065312227e-01 6.0441559903264674e-01 1.0002622109396131e+00 1.1393260717401457e-01 1.3027521741575335e-01 1.0124107012727879e-01 1.8735795113073039e+00 6.1518201107385817e-01 1.6417157944712004e+00 2.4100219047182075e-01 7.1475385969668603e-01 7.7017546560230377e-01 2.1267978862190033e+00 1.2360180477024260e-01 7.8742413612692352e-01 3.9284206664812321e-01 1.0001052257032206e+00 1.3139764365081430e-01 8.5347581874365780e-02 8.4561324121541070e-01 1.1479919273828587e-01 2.1585137108353365e+00 2.7833993514018435e-01 3.2843901752280757e-01 4.7151316519910315e-02 8.2037954333078988e-01 6.8514038576165182e-01 1.4402286226758382e-01 6.9582217459350648e-01 8.9497447838518179e-02 7.1531235071189370e-01 8.0347210612184838e-01 2.0143786575617710e+00 1.1020127270691540e-01 3.9281463572561182e-02 1.5546808235922132e+00 7.3650270119911720e-01 8.4036479151208265e-02 1.1536333598276622e+00 4.2087995890058588e-01 8.3380852789707660e-01 7.5371240458313460e-01 7.5464041579791724e-02 2.0722920248981924e+00 2.1039668317146237e-01 4.1557871431947346e-01 4.5828199932202873e-01 1.9593326903166791e-01 1.1784170710025639e+00 7.3489343751209496e-02 4.5992404123040587e-01 3.3300222014205419e-03 2.2227393986684230e+00 1.3151854408761787e-01 2.8000642393181302e-01 3.5100425371400157e-01 3.5415033729028000e-01 8.8647296730747449e-01 9.1854787012019767e-01 2.9811421586083214e-02 2.0496894568475690e+00 2.8728546741095073e-01 1.9932712753374121e-01 1.2190550384592655e+00 1.0009867208783483e+00 1.4169739255242082e+00 9.5739028518845304e-01 9.3856636802764196e-02 1.3008890792239164e-01 2.2038599224504498e+00 1.5597359927167882e+00 2.0930503914715320e-01 5.5453526332039915e-01 2.7449646738825295e-01 1.0012405300506888e+00 8.6842325010551535e-01 8.0140506869784689e-02 8.2207781068755925e-02 1.5911055197707222e+00 5.5158377010195075e-02 4.1647045892340961e-01 1.5571890961822790e-01 1.0045130700971487e+00 8.8643172677772431e-03 5.0890076894634206e-01 1.8283327166938865e-01 7.1099280825442324e-01 3.1400428451053321e-02 1.0055831924903100e+00 1.5084120158274803e+00 2.0177378767683223e+00 1.8360069414427951e+00 1.3142670806413437e-01 6.3916825806928634e-01 6.3224221709156120e-02 4.2581482300476409e-01 1.4043937227461005e+00 1.6019794828946330e+00 6.8707887343238105e-01 1.4995112054866902e-01 1.7419352601308474e-01 8.6175986655872494e-01 1.8428730639234148e-01 4.1527817063737227e-01 1.6309255276179507e-01 6.3643041075031470e-01 4.6005247901473124e-02 1.0000239559999060e+00 2.8296494455441007e-01 8.0603096028575361e-01 2.5156119607484838e-02 9.5820873956880645e-02 9.5393963797021120e-01 1.2613168557634804e+00 1.5377390739474489e-01 6.0281928965352460e-01 2.0275586685229730e+00 6.8135553300379770e-01 5.0849998462007107e-01 5.0192712323142610e-02 8.7065354286885083e-02 2.2395769632076058e-02 9.8736298088989671e-01 2.2412538787578325e-02 2.1288142788162476e+00 2.0920846270463131e-01 5.5909581502997052e-01 2.4726998830503683e-01 3.2964480810179309e-01 1.1586775721782875e-02 4.1253629774706785e-01 2.4214791168796618e-01 1.0994547474185754e-01 4.5254122945043851e-01 9.6417635937968771e-01 1.5824613023557625e+00 2.1351866829342320e-01 8.8193531391202354e-02 3.6675476942715179e-01 7.1103749802588684e-02 8.4867351372240867e-04 1.3434648581412467e-02 6.6279796946846381e-02 3.6752230175859735e-01 8.2537058167977917e-01 9.9450532160215332e-01 1.1068365616218379e+00 1.6181205497734894e+00 1.0022582435288943e+00 3.6145964077783505e-01 7.7426068680876009e-02 4.4093482122229366e-01 1.9767127271225662e-01 1.6862032748697985e-02 4.2144872189814730e-01 1.5721683449076054e-01 1.3438970295710786e-01 8.6635528119010119e-01 1.0027420276646635e+00 1.7061170655607949e-01 1.2445340264689380e+00 1.0492730109604742e+00 1.9554560095751508e+00 2.0788534896085213e+00 1.2201614573675472e-01 4.2682613552297077e-01 3.1616970146405049e-02 2.0392356789431948e-01 4.5100470204422027e-01 1.2992836695645003e+00 4.6832401981597147e-02 1.0052885968631999e+00 1.4449228105935683e-01 6.0068437711633349e-01 2.5109108203181485e-01 2.0162234601212223e-01 1.0569195096384287e-01 1.6010299644557296e-01 4.9060749516493751e-01 2.9407703650879724e-01 9.8627861683114304e-01 1.1954128070769572e-01 7.2760761901809912e-01 6.5985710918615187e-02 2.0432585712625732e-02 1.0187016515947653e+00 5.3969320577464001e-02 1.0802330265712863e+00 1.9428969829207308e+00 1.4261023624186661e-01 5.2344529533798589e-01 2.0390372194856201e-02 5.8444010658434936e-02 2.1167998025815704e+00 2.0932433889964769e-01 2.2173052347766014e+00 3.9852365506777321e-01 1.8575488795608082e+00 4.0791392264240534e-01 5.5535240179069267e-01 9.1581916360329108e-01 3.3736082369420040e-01 5.3125977186302617e-02 7.0649580337261694e-02 2.1032019212058006e-01 1.0138016489647808e+00 1.0741041572715597e+00 9.9827663631036545e-01 1.0059289298195089e+00 1.0180054306829400e-01 1.4489551419720914e+00 9.6700928141095188e-01 3.7274680730390064e-01 1.8349967191475121e+00 1.1040268839413656e+00 1.2740465987020233e+00 1.0628859255646264e+00 1.0486291805459900e+00 4.1991888689781920e-01 8.8192354492497205e-01 1.1685233110787374e+00 1.2294755707862306e+00 6.4893558772370311e-02 2.9003260335914510e-01 1.0727279777035146e+00 9.9999196158799586e-01 4.0379449915319093e-01 3.9202903569613007e-01 7.5878010428815656e-01 1.0840031628513498e+00 1.0124297399930531e+00 1.1536525259530417e+00 3.2919861874013390e-01 9.4102784733782058e-03 1.2002244172292950e-01 1.3779622298373020e-01 1.1239912986632028e+00 9.4623742097768115e-01 2.9631454342667111e-02 4.5145860413365629e-02 7.8619521210076138e-01 6.0473985842980205e-01 2.1705155129677528e-01 8.7067076260239018e-01 2.8195673709080597e-02 7.3043505466345926e-01 1.0482405399777281e+00 9.2790794844994917e-01 8.4573784818614683e-01 1.9745471209901300e-01 2.1376085426452266e-04 9.4324010597769248e-01 1.0106599161212786e+00 9.2654234075556707e-01 8.8161879772571727e-01 9.9836636425948633e-01 9.9070458386722304e-01 9.0503315161411568e-01 1.7323433031247593e-01 4.3041233757109149e-01 4.9379531439100710e-01 6.3453538281592725e-01 1.8117651334642143e-01 9.7983569815570293e-01 1.5706412282868878e+00 9.2399354585507343e-01 7.7872128001448215e-01 1.8270415805469860e+00 1.0095546344020552e+00 1.2822976310834309e-02 1.5279011965152045e+00 1.8302002678737866e-01 7.2048605837767288e-02 6.2430450185063213e-01 8.7271603691685984e-01 3.5302545286135384e-02 8.1199122830449652e-02 1.6204524437211263e+00 8.3331014931530528e-02 5.1142270718876492e-01 7.8425906967273806e-01 4.2262712057973739e-01 4.4136191213889696e-02 7.9007072125882788e-02 3.9372255522714256e-01 1.3069285647162818e+00 8.2111876069225520e-01 3.2787758858708360e-01 7.9296675400784422e-01 5.3535370086174794e-01 1.4907213636248773e-01 1.9651634534981217e+00 2.1833113038671231e-01 2.1142155022333430e-02 1.4793774184279853e+00 1.3819732576406535e-01 1.3634986793315157e-01 1.3737502356415743e+00 8.4316272989270713e-01 1.4395902500962821e-01 8.0189090401318697e-01 2.2772098108623023e-01 6.9408674806764825e-01 2.1039514523919356e-01 7.9425552835633018e-02 9.9789861641521393e-01 5.1784155557617284e-01 1.6558982031349861e-01 1.0693692442488359e-01 1.3401871728333643e+00 1.0064499610469884e+00 2.1713409282770328e+00 1.0087612412824642e+00 2.2701176550104627e+00 1.0373156402817805e+00 1.2187422220101539e-01 7.9188025313793453e-01 3.4937298386343602e-01 1.0074161798055052e+00 8.3463565888268998e-01 3.0409562588845897e-02 6.0643529340548530e-01 1.5679266402282068e+00 7.5723145450685675e-02 1.7863256671567226e-02 3.1871342104494771e-01 9.9557715958897952e-01 4.8285190912794013e-02 2.1336021057656779e-01 9.9597237554440898e-01 1.7432784697609810e-01 3.9314486679366441e-02 1.4212877540254441e-02 8.1405285788346760e-01 9.9258938051525192e-02 3.6662724437157082e-02 5.1029386480099614e-01 1.9691058413368076e-01 9.9985906132946401e-01 1.4301820118004516e+00 2.0908217375158544e-01 7.7622939017077075e-01 4.8939731756637017e-01 4.4509702194519829e-02 5.3210476449700228e-01 1.0995813403214436e+00 2.2661008165194443e+00 9.4519891465313671e-02 2.3338677017022964e+00 1.1034247435333044e+00 4.3629638645488095e-01 1.0000456178203725e+00 8.6587432260031805e-01 1.9170919624909977e-01 3.3632040265707386e-01 1.0036654685946309e+00 3.7119693433208711e-01 4.3430529268450335e-01 1.7234139085380645e-01 4.1306672657080799e-03 1.0387787033486355e+00 2.0106957833393188e-01 3.2742377735902056e-01 9.9152598396596167e-02 1.3075641712537078e-01 5.3364728063159650e-01 6.8719535011149846e-01 1.4489311621372054e+00 6.5126727634979087e-01 1.0285812020708427e+00 4.2339792161788969e-01 1.8459120209457796e+00 1.0556542291755824e+00 9.5405665869690104e-01 3.7364389373814227e-02 1.9154055081813420e-01 1.9178223005528267e-02 5.3384439688881610e-02 9.3098913586087328e-01 2.4981095817314995e-02 9.2595200968221691e-01 1.2966714022791537e+00 -5.4433829841901943e-04 1.7549175959497667e+00 7.4917316366054165e-01 8.1165870626297432e-01 9.9759958691796713e-01 1.0053923025169831e+00 2.4873821963094900e-01 1.3622624859924695e+00 1.0253285782024293e-01 9.9059480104253372e-01 2.5659317863110109e-01 2.7718946386971577e-01 8.5922106944913840e-02 1.1436316