<?xml version="1.0"?>
<VTKFile type="UnstructuredGrid"  byte_order="LittleEndian">
<UnstructuredGrid>
<Piece NumberOfPoints="1473" NumberOfCells=" 2948">
<Points>
<DataArray type="Float32" NumberOfComponents="3" format="ascii">
3.569276 -1.519266 0.000000 3.496735 -1.588221 0.000000 3.646306 -1.455366 0.000000 3.551275 -1.398287 0.000000 3.464560 -1.486666 0.000000 3.429015 -1.661916 0.000000 3.379439 -1.548490 0.000000 3.727475 -1.396811 0.000000 3.630233 -1.341328 0.000000 3.309250 -1.822160 0.000000 3.366425 -1.740015 0.000000 3.812411 -1.343870 0.000000 3.900728 -1.296784 0.000000 3.506722 -1.270856 0.000000 3.358306 -1.385739 0.000000 3.314099 -1.619596 0.000000 3.261610 -1.471508 0.000000 3.712856 -1.289829 0.000000 3.613344 -1.207697 0.000000 3.198540 -1.774211 0.000000 3.257751 -1.907979 0.000000 3.253707 -1.694951 0.000000 3.798767 -1.244025 0.000000 3.906714 -1.189179 0.000000 3.992021 -1.255767 0.000000 4.085876 -1.221007 0.000000 4.181863 -1.192662 0.000000 3.591824 -1.046397 0.000000 3.349797 -1.181320 0.000000 3.149917 -1.388713 0.000000 3.159036 -1.562491 0.000000 3.715884 -1.146956 0.000000 3.080473 -1.675370 0.000000 3.148850 -1.857015 0.000000 3.212162 -1.997078 0.000000 3.891890 -1.074923 0.000000 3.998481 -1.155192 0.000000 4.092332 -1.127478 0.000000 4.186326 -1.095590 0.000000 4.279545 -1.170863 0.000000 3.139524 -2.183480 0.000000 4.678230 -1.150644 0.000000 3.172693 -2.089051 0.000000 4.777616 -1.162449 0.000000 5.067843 -1.237594 0.000000 4.378475 -1.155707 0.000000 4.875978 -1.180937 0.000000 5.160470 -1.275504 0.000000 4.578274 -1.145574 0.000000 4.972868 -1.206024 0.000000 5.250327 -1.319581 0.000000 4.478203 -1.147265 0.000000 3.295949 -0.983849 0.000000 3.720791 -0.998633 0.000000 3.520697 -0.887867 0.000000 3.082641 -1.116812 0.000000 2.917720 -1.316427 0.000000 2.896819 -1.552270 0.000000 3.001910 -1.788248 0.000000 3.086708 -1.978895 0.000000 4.021718 -1.017385 0.000000 3.849758 -0.950869 0.000000 4.144657 -0.962900 0.000000 4.238717 -0.941908 0.000000 4.277794 -1.064560 0.000000 3.017053 -2.157641 0.000000 3.112804 -2.279932 0.000000 4.686822 -1.044688 0.000000 4.784498 -1.056291 0.000000 4.898373 -1.074461 0.000000 5.086935 -1.130142 0.000000 5.177968 -1.167399 0.000000 4.375022 -1.049665 0.000000 4.993595 -1.099116 0.000000 5.266277 -1.210718 0.000000 4.571381 -1.039706 0.000000 5.366663 -1.266843 0.000000 5.337002 -1.369623 0.000000 4.473033 -1.041367 0.000000 3.030778 -0.846640 0.000000 3.409371 -0.711553 0.000000 3.092658 -2.377968 0.000000 3.079175 -2.477140 0.000000 5.420102 -1.425403 0.000000 5.499247 -1.486665 0.000000 5.574075 -1.553131 0.000000 3.687203 -0.832520 0.000000 3.647989 -0.622519 0.000000 2.776362 -1.017414 0.000000 2.614895 -1.222153 0.000000 2.537246 -1.570791 0.000000 2.804054 -1.856228 0.000000 2.874629 -2.036193 0.000000 3.972410 -0.803756 0.000000 4.121640 -0.820765 0.000000 4.371037 -0.927314 0.000000 4.273442 -0.800273 0.000000 2.972111 -2.344141 0.000000 2.820660 -2.208203 0.000000 4.696736 -0.922437 0.000000 4.792438 -0.933807 0.000000 4.887154 -0.951610 0.000000 5.017509 -0.975766 0.000000 5.198156 -1.042669 0.000000 5.108963 -1.006165 0.000000 5.284681 -1.085113 0.000000 5.400613 -1.149198 0.000000 4.563428 -0.917556 0.000000 5.480840 -1.203047 0.000000 5.461910 -1.327858 0.000000 4.467068 -0.919184 0.000000 3.246579 -0.511718 0.000000 2.900009 -0.619425 0.000000 3.072418 -2.576997 0.000000 2.959183 -2.484304 0.000000 5.539854 -1.388191 0.000000 5.613547 -1.453649 0.000000 5.682653 -1.523932 0.000000 5.644245 -1.624497 0.000000 3.072418 -2.677081 0.000000 5.709437 -1.700437 0.000000 3.865450 -0.541380 0.000000 3.502695 -0.236794 0.000000 3.839474 -0.355811 0.000000 2.634002 -0.704202 0.000000 2.289020 -1.242091 0.000000 2.312697 -1.866712 0.000000 2.629690 -1.992756 0.000000 2.048799 -1.552298 0.000000 4.095062 -0.656642 0.000000 4.460179 -0.778089 0.000000 4.270748 -0.636728 0.000000 2.802510 -2.405015 0.000000 2.564074 -2.229639 0.000000 4.801607 -0.792364 0.000000 4.614227 -0.776502 0.000000 4.923366 -0.812844 0.000000 5.045125 -0.833324 0.000000 5.221469 -0.898633 0.000000 5.357647 -0.967214 0.000000 5.517964 -1.067140 0.000000 5.638424 -1.149157 0.000000 5.585999 -1.276291 0.000000 3.119280 -0.204405 0.000000 2.755683 -0.368652 0.000000 2.952703 -2.676033 0.000000 2.879064 -2.571448 0.000000 5.658401 -1.340604 0.000000 5.726298 -1.409655 0.000000 5.815109 -1.496023 0.000000 5.759108 -1.604353 0.000000 3.079175 -2.776938 0.000000 5.818166 -1.683373 0.000000 5.769354 -1.780605 0.000000 3.172693 -3.165026 0.000000 3.092658 -2.876110 0.000000 3.139524 -3.070598 0.000000 3.112804 -2.974146 0.000000 2.564074 -2.427241 0.000000 4.064378 -0.467156 0.000000 3.380844 0.158657 0.000000 3.606794 -0.003122 0.000000 3.809963 -0.144986 0.000000 4.028906 -0.248108 0.000000 2.079652 -0.576451 0.000000 1.718051 -1.132995 0.000000 1.781839 -1.897035 0.000000 2.228389 -2.135441 0.000000 4.452225 -0.615168 0.000000 4.586815 -0.616711 0.000000 4.267639 -0.447908 0.000000 2.784266 -2.674558 0.000000 2.228389 -2.458533 0.000000 4.721405 -0.618254 0.000000 4.854954 -0.632091 0.000000 4.988503 -0.645928 0.000000 5.163773 -0.697685 0.000000 5.404290 -0.814070 0.000000 5.284032 -0.755878 0.000000 5.560496 -0.911434 0.000000 5.663926 -0.988721 0.000000 5.767355 -1.066008 0.000000 5.775884 -1.279822 0.000000 2.969932 0.156135 0.000000 2.590230 -0.033855 0.000000 2.886068 -2.778790 0.000000 5.878358 -1.373672 0.000000 5.945217 -1.470484 0.000000 5.873199 -1.573747 0.000000 2.972111 -2.866887 0.000000 5.920207 -1.666904 0.000000 5.869221 -1.771392 0.000000 5.823723 -1.864635 0.000000 3.212162 -3.257000 0.000000 3.077038 -3.184503 0.000000 3.029106 -3.054134 0.000000 2.547474 -2.672485 0.000000 3.257751 -3.346099 0.000000 0.157698 -1.554374 0.000000 0.157698 -0.457190 0.000000 1.445993 -2.276598 0.000000 5.872294 -1.952143 0.000000 5.914847 -2.042731 0.000000 2.218871 -2.740016 0.000000 1.087495 -0.799606 0.000000 1.091888 -1.816522 0.000000 4.264044 -0.229630 0.000000 3.262550 0.521737 0.000000 3.650371 0.496605 0.000000 3.715126 0.240054 0.000000 4.066794 0.022198 0.000000 1.650691 -0.211862 0.000000 2.056102 0.255347 0.000000 1.745288 -2.665460 0.000000 4.443041 -0.427068 0.000000 4.736667 -0.430051 0.000000 2.802401 -2.962371 0.000000 2.563952 -2.893053 0.000000 4.911266 -0.456804 0.000000 5.113827 -0.478953 0.000000 5.279469 -0.540295 0.000000 5.609152 -0.733309 0.000000 5.457650 -0.638876 0.000000 5.765754 -0.840380 0.000000 5.889093 -1.164864 0.000000 5.896317 -0.964489 0.000000 2.574824 0.476891 0.000000 6.041708 -1.417901 0.000000 6.005527 -1.310151 0.000000 6.012076 -1.567295 0.000000 5.989538 -1.762586 0.000000 5.927757 -1.862473 0.000000 3.187579 -3.442086 0.000000 2.955851 -3.284647 0.000000 2.778737 -3.127645 0.000000 3.309250 -3.431918 0.000000 0.157698 -2.651558 0.000000 0.157698 0.639994 0.000000 0.973576 0.149954 0.000000 1.091888 -2.723032 0.000000 5.969761 -1.951893 0.000000 5.951187 -2.135986 0.000000 6.006339 -2.064162 0.000000 2.228187 -3.133022 0.000000 6.004595 -2.328780 0.000000 6.108614 -1.514716 0.000000 5.981149 -2.231480 0.000000 4.339715 0.034425 0.000000 4.517244 -0.208190 0.000000 3.580077 0.784135 0.000000 2.976288 0.901924 0.000000 3.955013 0.649038 0.000000 4.014927 0.313054 0.000000 4.255106 0.313054 0.000000 1.577758 0.667777 0.000000 2.165215 1.034703 0.000000 1.767076 -3.326711 0.000000 4.838549 -0.222499 0.000000 2.580431 -3.113621 0.000000 5.074265 -0.238163 0.000000 5.236888 -0.286185 0.000000 5.391559 -0.355683 0.000000 5.773716 -0.600367 0.000000 5.593340 -0.481359 0.000000 5.969103 -0.773911 0.000000 6.095190 -1.212716 0.000000 6.030334 -1.079683 0.000000 6.121295 -0.903726 0.000000 6.221589 -1.387412 0.000000 6.175519 -1.611530 0.000000 6.099257 -1.737682 0.000000 6.030932 -1.850705 0.000000 3.038512 -3.519979 0.000000 3.259074 -3.552954 0.000000 2.751241 -3.319681 0.000000 3.366425 -3.514063 0.000000 1.098140 -3.501964 0.000000 0.157698 -3.748349 0.000000 0.957148 1.155129 0.000000 0.157698 1.737178 0.000000 6.069187 -1.982315 0.000000 6.109111 -2.119668 0.000000 2.221913 -3.458627 0.000000 6.165734 -2.381169 0.000000 6.150740 -2.262882 0.000000 6.021420 -2.427440 0.000000 4.557191 0.036472 0.000000 4.482031 0.332671 0.000000 0.157698 -4.822159 0.000000 3.429015 -3.592162 0.000000 6.004595 -2.925298 0.000000 6.031545 -2.527011 0.000000 0.157698 2.834362 0.000000 6.034925 -2.627039 0.000000 6.031545 -2.727067 0.000000 6.021420 -2.826638 0.000000 6.107091 -2.573112 0.000000 3.401809 1.200921 0.000000 4.774666 0.038519 0.000000 3.885861 1.036829 0.000000 2.715484 1.378403 0.000000 4.249573 0.649038 0.000000 1.465041 1.869114 0.000000 2.075640 1.756032 0.000000 1.781301 -4.246625 0.000000 2.214710 -3.832429 0.000000 4.990077 0.016174 0.000000 2.526608 -3.534357 0.000000 5.205487 -0.006171 0.000000 5.429346 -0.097791 0.000000 5.660185 -0.249729 0.000000 6.051807 -0.557366 0.000000 5.863740 -0.390327 0.000000 6.223897 -0.705250 0.000000 6.194477 -1.104823 0.000000 6.355550 -1.313725 0.000000 6.285191 -0.918916 0.000000 6.364923 -1.520601 0.000000 6.226851 -1.780685 0.000000 6.293144 -1.655809 0.000000 6.143312 -1.887519 0.000000 2.843394 -3.713994 0.000000 3.166857 -3.733849 0.000000 3.342271 -3.681969 0.000000 1.179071 -4.822159 0.000000 0.929557 2.572215 0.000000 6.236812 -2.020041 0.000000 6.340329 -2.154638 0.000000 6.210817 -2.490925 0.000000 6.265777 -2.307713 0.000000 4.722237 0.332266 0.000000 4.540766 0.577903 0.000000 3.496735 -3.665857 0.000000 6.101303 -2.900617 0.000000 6.098589 -3.007401 0.000000 5.981149 -3.022598 0.000000 0.929655 3.389099 0.000000 0.157698 3.931153 0.000000 6.114308 -2.708418 0.000000 6.111053 -2.804737 0.000000 6.207782 -2.634556 0.000000 3.805959 1.484900 0.000000 3.295432 1.628284 0.000000 0.157698 5.004963 0.000000 3.900728 -3.957294 0.000000 3.569276 -3.734812 0.000000 3.727475 -3.857267 0.000000 5.951187 -3.118093 0.000000 3.812411 -3.910208 0.000000 4.136765 1.259884 0.000000 3.646306 -3.
[...]
<CellData Scalars="Label">
<DataArray type="Int32" Name="Label" format="ascii">
0 0 0 0 0 0 0 0 0 0 0 0 0 0 0 0 0 0 0 0 0 0 0 0 0 0 0 0 0 0 0 0 0 0 0 0 0 0 0 0 0 0 0 0 0 0 0 0 0 0 0 0 0 0 0 0 0 0 0 0 0 0 0 0 0 0 0 0 0 0 0 0 0 0 0 0 0 0 0 0 0 0 0 0 0 0 0 0 0 0 0 0 0 0 0 0 0 0 0 0 0 0 0 0 0 0 0 0 0 0 0 0 0 0 0 0 0 0 0 0 0 0 0 0 0 0 0 0 0 0 0 0 0 0 0 0 0 0 0 0 0 0 0 0 0 0 0 0 0 0 0 0 0 0 0 0 0 0 0 0 0 0 0 0 0 0 0 0 0 0 0 0 0 0 0 0 0 0 0 0 0 0 0 0 0 0 0 0 0 0 0 0 0 0 0 0 0 0 0 0 0 0 0 0 0 0 0 0 0 0 0 0 0 0 0 0 0 0 0 0 0 0 0 0 0 0 0 0 0 0 0 0 0 0 0 0 0 0 0 0 0 0 0 0 0 0 0 0 0 0 0 0 0 0 0 0 0 0 0 0 0 0 0 0 0 0 0 0 0 0 0 0 0 0 0 0 0 0 0 0 0 0 0 0 0 0 0 0 0 0 0 0 0 0 0 0 0 0 0 0 0 0 0 0 0 0 0 0 0 0 0 0 0 0 0 0 0 0 0 0 0 0 0 0 0 0 0 0 0 0 0 0 0 0 0 0 0 0 0 0 0 0 0 0 0 0 0 0 0 0 0 0 0 0 0 0 0 0 0 0 0 0 0 0 0 0 0 0 0 0 0 0 0 0 0 0 0 0 0 0 0 0 0 0 0 0 0 0 0 0 0 0 0 0 0 0 0 0 0 0 0 0 0 0 0 0 0 0 0 0 0 0 0 0 0 0 0 0 0 0 0 0 0 0 0 0 0 0 0 0 0 0 0 0 0 0 0 0 0 0 0 0 0 0 0 0 0 0 0 0 0 0 0 0 0 0 0 0 0 0 0 0 0 0 0 0 0 0 0 0 0 0 0 0 0 0 0 0 0 0 0 0 0 0 0 0 0 0 0 0 0 0 0 0 0 0 0 0 0 0 0 0 0 0 0 0 0 0 0 0 0 0 0 0 0 0 0 0 0 0 0 0 0 0 0 0 0 0 0 0 0 0 0 0 0 0 0 0 0 0 0 0 0 0 0 0 0 0 0 0 0 0 0 0 0 0 0 0 0 0 0 0 0 0 0 0 0 0 0 0 0 0 0 0 0 0 0 0 0 0 0 0 0 0 0 0 0 0 0 0 0 0 0 0 0 0 0 0 0 0 0 0 0 0 0 0 0 0 0 0 0 0 0 0 0 0 0 0 0 0 0 0 0 0 0 0 0 0 0 0 0 0 0 0 0 0 0 0 0 0 0 0 0 0 0 0 0 0 0 0 0 0 0 0 0 0 0 0 0 0 0 0 0 0 0 0 0 0 0 0 0 0 0 0 0 0 0 0 0 0 0 0 0 0 0 0 0 0 0 0 0 0 0 0 0 0 0 0 0 0 0 0 0 0 0 0 0 0 0 0 0 0 0 0 0 0 0 0 0 0 0 0 0 0 0 0 0 0 0 0 0 0 0 0 0 0 0 0 0 0 0 0 0 0 0 0 0 0 0 0 0 0 0 0 0 0 0 0 0 0 0 0 0 0 0 0 0 0 0 0 0 0 0 0 0 0 0 0 0 0 0 0 0 0 0 0 0 0 0 0 0 0 0 0 0 0 0 0 0 0 0 0 0 0 0 0 0 0 0 0 0 0 0 0 0 0 0 0 0 0 0 0 0 0 0 0 0 0 0 0 0 0 0 0 0 0 0 0 0 0 0 0 0 0 0 0 0 0 0 0 0 0 0 0 0 0 0 0 0 0 0 0 0 0 0 0 0 0 0 0 0 0 0 0 0 0 0 0 0 0 0 0 0 0 0 0 0 0 0 0 0 0 0 0 0 0 0 0 0 0 0 0 0 0 0 0 0 0 0 0 0 0 0 0 0 0 0 0 0 0 0 0 0 0 0 0 0 0 0 0 0 0 0 0 0 0 0 0 0 0 0 0 0 0 0 0 0 0 0 0 0 0 0 0 0 0 0 0 0 0 0 0 0 0 0 0 0 0 0 0 0 0 0 0 0 0 0 0 0 0 0 0 0 0 0 0 0 0 0 0 0 0 0 0 0 0 0 0 0 0 0 0 0 0 0 0 0 0 0 0 0 0 0 0 0 0 0 0 0 0 0 0 0 0 0 0 0 0 0 0 0 0 0 0 0 0 0 0 0 0 0 0 0 0 0 0 0 0 0 0 0 0 0 0 0 0 0 0 0 0 0 0 0 0 0 0 0 0 0 0 0 0 0 0 0 0 0 0 0 0 0 0 0 0 0 0 0 0 0 0 0 0 0 0 0 0 0 0 0 0 0 0 0 0 0 0 0 0 0 0 0 0 0 0 0 0 0 0 0 0 0 0 0 0 0 0 0 0 0 0 0 0 0 0 0 0 0 0 0 0 0 0 0 0 0 0 0 0 0 0 0 0 0 0 0 0 0 0 0 0 0 0 0 0 0 0 0 0 0 0 0 0 0 0 0 0 0 0 0 0 0 0 0 0 0 0 0 0 0 0 0 0 0 0 0 0 0 0 0 0 0 0 0 0 0 0 0 0 0 0 0 0 0 0 0 0 0 0 0 0 0 0 0 0 0 0 0 0 0 0 0 0 0 0 0 0 0 0 0 0 0 0 0 0 0 0 0 0 0 0 0 0 0 0 0 0 0 0 0 0 0 0 0 0 0 0 0 0 0 0 0 0 0 0 0 0 0 0 0 0 0 0 0 0 0 0 0 0 0 0 0 0 0 0 0 0 0 0 0 0 0 0 0 0 0 0 0 0 0 0 0 0 0 0 0 0 0 0 0 0 0 0 0 0 0 0 0 0 0 0 0 0 0 0 0 0 0 0 0 0 0 0 0 0 0 0 0 0 0 0 0 0 0 0 0 0 0 0 0 0 0 0 0 0 0 0 0 0 0 0 0 0 0 0 0 0 0 0 0 0 0 0 0 0 0 0 0 0 0 0 0 0 0 0 0 0 0 0 0 0 0 0 0 0 0 0 0 0 0 0 0 0 0 0 0 0 0 0 0 0 0 0 0 0 0 0 0 0 0 0 0 0 0 0 0 0 0 0 0 0 0 0 0 0 0 0 0 0 0 0 0 0 0 0 0 0 0 0 0 0 0 0 0 0 0 0 0 0 0 0 0 0 0 0 0 0 0 0 0 0 0 0 0 0 0 0 0 0 0 0 0 0 0 0 0 0 0 0 0 0 0 0 0 0 0 0 0 0 0 0 0 0 0 0 0 0 0 0 0 0 0 0 0 0 0 0 0 0 0 0 0 0 0 0 0 0 0 0 0 0 0 0 0 0 0 0 0 0 0 0 0 0 0 0 0 0 0 0 0 0 0 0 0 0 0 0 0 0 0 0 0 0 0 0 0 0 0 0 0 0 0 0 0 0 0 0 0 0 0 0 0 0 0 0 0 0 0 0 0 0 0 0 0 0 0 0 0 0 0 0 0 0 0 0 0 0 0 0 0 0 0 0 0 0 0 0 0 0 0 0 0 0 0 0 0 0 0 0 0 0 0 0 0 0 0 0 0 0 0 0 0 0 0 0 0 0 0 0 0 0 0 0 0 0 0 0 0 0 0 0 0 0 0 0 0 0 0 0 0 0 0 0 0 0 0 0 0 0 0 0 0 0 0 0 0 0 0 0 0 0 0 0 0 0 0 0 0 0 0 0 0 0 0 0 0 0 0 0 0 0 0 0 0 0 0 0 0 0 0 0 0 0 0 0 0 0 0 0 0 0 0 0 0 0 0 0 0 0 0 0 0 0 0 0 0 0 0 0 0 0 0 0 0 0 0 0 0 0 0 0 0 0 0 0 0 0 0 0 0 0 0 0 0 0 0 0 0 0 0 0 0 0 0 0 0 0 0 0 0 0 0 0 0 0 0 0 0 0 0 0 0 0 0 0 0 0 0 0 0 0 0 0 0 0 0 0 0 0 0 0 0 0 0 0 0 0 0 0 0 0 0 0 0 0 0 0 0 0 0 0 0 0 0 0 0 0 0 0 0 0 0 0 0 0 0 0 0 0 0 0 0 0 0 0 0 0 0 0 0 0 0 0 0 0 0 0 0 0 0 0 0 0 0 0 0 0 0 0 0 0 0 0 0 0 0 0 0 0 0 0 0 0 0 0 0 0 0 0 0 0 0 0 0 0 0 0 0 0 0 0 0 0 0 0 0 0 0 0 0 0 0 0 0 0 0 0 0 0 0 0 0 0 0 0 0 0 0 0 0 0 0 0 0 0 0 0 0 0 0 0 0 0 0 0 0 0 0 0 0 0 0 0 0 0 0 0 0 0 0 0 0 0 0 0 0 0 0 0 0 0 0 0 0 0 0 0 0 0 0 0 0 0 0 0 0 0 0 0 0 0 0 0 0 0 0 0 0 0 0 0 0 0 0 0 0 0 0 0 0 0 0 0 0 0 0 0 0 0 0 0 0 0 0 0 0 0 0 0 0 0 0 0 0 0 0 0 0 0 0 0 0 0 0 0 0 0 0 0 0 0 0 0 0 0 0 0 0 0 0 0 0 0 0 0 0 0 0 0 0 0 0 0 0 0 0 0 0 0 0 0 0 0 0 0 0 0 0 0 0 0 0 0 0 0 0 0 0 0 0 0 0 0 0 0 0 0 0 0 0 0 0 0 0 0 0 0 0 0 0 0 0 0 0 0 0 0 0 0 0 0 0 0 0 0 0 0 0 0 0 0 0 0 0 0 0 0 0 0 0 0 0 0 0 0 0 0 0 0 0 0 0 0 0 0 0 0 0 0 0 0 0 0 0 0 0 0 0 0 0 0 0 0 0 0 0 0 0 0 0 0 0 0 0 0 0 0 0 0 0 0 0 0 0 0 0 0 0 0 0 0 0 0 0 0 0 0 0 0 0 0 0 0 0 0 0 0 0 0 0 0 0 0 0 0 0 0 0 0 0 0 0 0 0 0 0 0 0 0 0 0 0 0 0 0 0 0 0 0 0 0 0 0 0 0 0 0 0 0 0 0 0 0 0 0 0 0 0 0 0 0 0 0 0 0 0 0 0 0 0 0 0 0 0 0 0 0 0 0 0 0 0 0 0 0 0 0 0 0 0 0 0 0 0 0 0 0 0 0 0 0 0 0 0 0 0 0 0 0 0 0 0 0 0 0 0 0 0 0 0 0 0 0 0 0 0 0 0 0 0 0 0 0 0 0 0 0 0 0 0 0 0 0 0 0 0 0 0 0 0 0 0 0 0 0 0 0 0 0 0 0 0 0 0 0 0 0 0 0 0 0 0 0 0 0 0 0 0 0 0 0 0 0 0 0 0 0 0 0 0 0 0 0 0 0 0 0 0 0 0 0 0 0 0 0 0 0 0 0 0 0 0 0 0 0 0 0 0 0 0 0 0 0 0 0 0 0 0 0 0 0 0 0 0 0 0 0 0 0 0 0 0 0 0 0 0 0 0 0 0 0 0 0 0 0 0 0 0 0 0 0 0 0 0 0 0 0 0 0 0 0 0 0 0 0 0 0 0 0 0 0 0 0 0 0 0 0 0 0 0 0 0 0 0 0 0 0 0 0 0 0 0 0 0 0 0 0 0 0 0 0 0 0 0 0 0 0 0 0 0 0 0 0 0 0 0 0 0 0 0 0 0 0 0 0 0 0 0 0 0 0 0 0 0 0 0 0 0 0 0 0 0 0 0 0 0 0 0 0 0 0 0 0 0 0 0 0 0 0 0 0 0 0 0 0 0 0 0 0 0 0 0 0 0 0 0 0 0 0 0 0 0 0 0 0 0 0 0 0 0 0 0 0 0 0 0 0 0 0 0 0 0 0 0 0 0 0 0 0 0 0 0 0 0 0 0 0 0 0 0 0 0 0 0 0 4 4 4 4 4 4 4 4 4 4 4 4 4 4 4 4 4 4 4 4 4 4 4 4 4 4 4 4 4 4 4 4 4 4 4 4 4 4 4 4 4 4 4 4 4 4 4 4 4 4 4 4 4 4 4 4 4 4 4 4 4 4 4 4 4 4 4 4 4 4 4 4 4 4 4 4 4 4 4 4 4 4 4 4 4 4 4 4 4 4 4 4 4 4 4 4 4 4 4 4 4 4 4 4 4 4 4 4 4 4 4 4 4 4 4 4 4 4 4 4 4 4 4 4 4 4 4 4 4 4 4 4 4 4 4 4 4 4 4 4 4 4 4 4 4 4 4 4 4 4 4 4 4 4 4 4 4 4 4 4 4 4 4 4 4 4 4 4 4 4 4 4 4 4 3 3 3 3 3 3 3 3 3 3 3 3 3 3 3 3 3 3 3 3 3 3 3 3 3 3 3 3 3 3 3 3 3 3 3 3 3 3 3 3 3 3 3 3 3 3 3 3 3 3 3 3 3 3 3 3 3 3 3 3 3 3 3 3 3 3 3 3 3 3 3 3 2 2 2 2 2 2 2 2 2 1 1 1 1 1 1 1 1 1 
</DataArray>
<DataArray type="Float64" Name="u" NumberOfComponents="1" format="ascii">
9.7824813246015239e-05 2.7150472971651477e-05 7.8044319908234759e-03 7.1550635177867125e-03 4.0618027057576873e-04 7.6976125339936171e-04 2.8400778484374126e-02 6.2550941506877688e-03 4.9119529020405354e-04 3.8841560791597262e-03 5.0022128105839773e-02 6.8836452692980499e-02 9.6961682050061782e-02 1.1518905281194858e-01 1.4183752883368397e-02 3.7594029315493301e-03 9.4718670683656275e-02 3.1952262184080690e-02 3.1520128590092134e-01 1.6504008119929503e-01 1.4988085078073560e-01 9.0853770460459921e-02 3.5364294043638644e-01 2.6945765504087832e-01 2.9439412651710817e-01 1.7632872997545224e-01 1.6344428797312327e-01 1.7655291440766785e-01 1.9049765760283682e-01 2.3410875579441900e-01 2.2213155012617655e-01 9.0251199122990622e-02 1.3452565582532308e-01 1.5705900566112513e-01 7.8479461948594467e-02 7.7715696746053026e-02 1.3377724589738357e-01 7.4252229870276826e-02 4.2992081358510792e-01 3.3414809306197119e-01 4.6485110493032261e-01 5.4143317171738858e-01 2.5899058148136866e-01 2.7276001010305995e-01 1.2363733597874707e-01 2.7228338555703585e-01 2.9396047487450383e-01 1.8604043122094802e-01 2.6919154803369821e-01 1.6708612952789054e-01 5.0204534074857721e-01 3.4563240898721143e-01 5.3810279910666248e-01 3.8388105405235906e-01 4.7589525080469652e-01 1.7134625192194797e-01 2.6261438333737425e-01 3.5106502878787028e-03 2.3639856976508011e-01 2.8030343441075439e-01 2.4474449428026912e-01 3.1035905588524215e-01 3.9628057961593038e-01 4.4696457684685031e-01 4.8715682911233482e-01 5.4666525744359962e-01 1.2955803545413733e-01 1.8632548102282120e-01 2.2458144386073967e-01 2.1651672320690618e-01 2.2538860928736393e-01 1.8718729942626722e-01 2.3559693216544497e-01 3.4972921324729278e-01 2.9719457065476240e-01 3.6242043525333412e-01 6.6141838122694763e-01 7.7596263763410755e-01 7.6048139462250486e-01 5.9745030454274617e-01 7.3214910392205645e-01 3.5959769137958158e-03 8.9269240636555332e-03 1.5305652374208379e-02 2.2938916490884073e-02 1.9636471141494638e-02 5.1370871075354839e-02 4.8393485378762605e-02 6.0862610830749597e-01 9.6285637946186098e-01 1.1681953107829059e+00 1.0386758337504844e+00 8.8268745002882798e-01 1.1222165028816331e+00 1.1412153877266484e+00 1.2238708951402588e+00 1.2418420470286513e+00 1.4665660764918744e+00 1.2291028270255329e+00 9.8020378790389207e-01 7.9318884548556290e-01 7.5911841731410024e-01 1.1296310094252415e+00 1.3399904007967320e+00 5.6126941793941632e-01 4.4458445887485087e-01 6.3554664266015337e-01 3.1695173971146695e-01 4.9294451229489561e-01 2.8669358375878889e-03 3.1714863658362999e-02 1.0624209774373171e-02 9.8175774400761429e-01 1.0307943341285064e+00 9.4858097996779933e-01 9.6746022027615730e-01 9.0574754273756786e-01 7.5126558493406503e-01 8.0951077079537481e-01 7.7520318655877274e-01 6.9120832914763508e-01 7.4012564156443950e-01 6.5429732243217165e-01 1.5888839557441845e-02 6.1362600191105770e-03 4.0653292998434024e-02 1.7141289277621368e+00 1.4716786734487597e+00 1.5357268390954071e+00 1.3085094925768501e+00 8.3667560235338678e-01 3.9886958665102012e-01 3.3362325940985360e-01 8.1443323899139419e-01 6.3108077925108663e-01 6.1916717974153346e-01 4.7089105926444019e-01 7.1910086347949953e-01 5.8374258827517567e-01 7.6792309295220240e-01 6.3353508758248855e-01 4.6352999155839192e-01 3.8639265062891526e-01 4.4734946336772541e-01 6.0323547574546788e-01 4.9203246483755891e-01 3.9676956700668065e-01 5.6248651721472309e-01 7.4750452556196800e-01 1.0578920324449659e+00 9.4022892374522882e-01 9.4868408213775501e-01 1.0045523061998620e+00 8.4807687903379603e-01 3.6174150725862836e-01 4.8315142670784905e-01 3.1508334206945521e-01 4.0479132952316932e-01 5.8211331571044955e-01 7.0565935452303541e-01 5.3189256004833874e-01 4.4422408505509081e-01 2.5761490260975739e-01 6.7382012254673229e-01 8.1332694146949658e-01 7.8880723437458244e-01 9.6115585321939268e-01 6.4660301431133071e-01 5.0009917592083875e-01 6.0882866946205538e-01 5.3292627355241340e-01 5.2762930359684057e-01 6.3606596880781052e-01 6.6341686630860708e-01 3.9069477189935553e-01 3.9986003942937753e-01 3.3711828509970532e-01 3.2174473484970406e-01 2.1969492033052906e-01 6.6627764031647363e-01 8.8564618054155209e-01 8.6743889699736787e-01 5.0715860515624411e-01 6.3344366125341467e-01 5.0796868599620792e-01 6.6264438633402789e-01 6.9338706188616195e-01 8.4940403345919591e-01 4.6644496290426579e-01 2.3846052340449841e-01 3.8228102241771394e-01 1.6985984025850268e-01 1.9664661597503011e-01 2.6375955157410136e-01 2.0621478444255650e-01 1.4026970542385042e-01 3.7563672789217017e-01 8.7107903580941526e-01 7.4977498337374615e-01 8.8732472929655970e-01 9.5601546894525846e-01 1.0190051799142283e+00 1.0176932399386116e+00 1.1015907535797673e+00 1.1491813672757316e+00 1.1726991704996110e+00 7.0906724784677944e-01 7.7672748830742955e-01 7.6132665576290937e-01 8.8994035139103045e-01 6.3383107061689214e-01 8.4335891312134481e-01 9.4501151648529325e-01 2.8051649852141458e-01 1.6343700409726443e+00 1.4295011905194164e+00 1.4325516241958449e+00 1.2501628546020307e+00 1.2888060536840102e+00 1.2695525567306496e+00 1.3617863083326873e+00 1.3875975558319360e+00 1.2103525253769343e+00 1.0450284637550520e+00 9.6172458564222674e-01 9.4332205065824726e-01 1.3159578450411704e+00 1.1344034667694163e+00 1.2569810786737867e+00 1.3231620621012317e+00 1.2152171287316471e+00 1.2870455751986682e+00 1.3063624615523373e+00 1.0409948439462573e+00 9.0789178434858120e-01 1.0641305805610530e+00 9.5596965243537890e-01 8.7435772819937840e-01 9.0228389570453715e-01 1.2201583973641319e+00 1.0982952524416689e+00 1.1099537599238281e+00 1.3438964773211022e+00 1.7149683047456734e+00 7.2821380097617672e-01 5.9734555872629524e-01 7.1505263955727982e-01 8.2458595540423985e-01 8.7753815987547434e-01 8.5407396705285499e-01 9.0096520406722036e-01 8.1235660044945268e-01 1.6113473935223261e+00 1.3871663749914664e+00 1.2847323659680043e+00 1.3645864486858739e+00 1.5559889182381776e+00 1.5628354809294274e+00 1.0083670403563296e+00 9.7767167682383105e-01 9.8957570732923827e-01 9.9448506673045334e-01 1.0237833718409797e+00 1.0331075811139860e+00 9.7951685452230319e-01 1.0544620646737486e+00 1.1712004548544197e+00 1.0681080613198424e+00 1.0916090595913706e+00 1.2659126168194350e+00 1.1285723435552173e+00 1.1953880518613902e+00 1.1262404618183617e+00 1.1492521528117268e+00 1.1683242164363112e+00 1.2227670869807408e+00 1.0626752007088305e+00 1.0472399285886822e+00 1.3976559938874393e+00 1.2563499243022205e-01 1.7852324466266484e-01 1.5206306615649196e-01 9.5907025306077992e-04 4.8200783050368307e-01 1.2520857201148894e-01 2.1447212890396236e-02 1.6112582134653148e-03 2.1825432623561475e-01 1.5182021197245583e+00 1.6773694839022300e+00 1.6470259881083149e+00 1.2505186566606803e-02 9.3452979230357669e-01 8.8306138208293139e-01 9.5523234056484729e-01 1.7975148452482992e-01 2.0987498261907822e-01 3.2884923004921718e-01 6.0624653872108913e-01 6.9978816836928148e-01 5.6169391238248589e-01 6.4814009376322024e-01 4.7279716121316401e-01 4.5240096676111163e-01 5.0594831766841719e-01 5.0682261137669915e-01 5.7129493906169659e-01 3.2215071143383200e-01 4.1527290278795725e-01 4.9142759298661054e-01 6.7664034009313159e-02 5.3571730710764376e-01 3.8898732682718523e-01 5.7668894733914655e-01 3.7388772595507103e-01 6.9175324520847326e-01 2.4441840992008457e-01 2.1323270467044852e-03 3.3460634401878383e-03 1.9288634576058870e-02 6.9703295500691070e-02 1.6595057181291308e-02 4.8581056599354289e-01 4.0573069903475456e-01 4.0168727874658117e-01 3.8521725962400094e-01 3.3051414985611005e-01 2.0416041439995192e-01 1.5337278184052225e-01 1.6354996972876068e-01 7.4953673981854846e-02 8.6339660999624201e-02 4.5162622720127943e-02 4.8482621075475039e-02 9.1585496329301130e-02 1.5524808314320321e-01 1.7185785186653765e-01 4.5418684216883574e-02 2.0825207651535886e-02 8.6281770083927456e-03 5.1043564153879215e-02 3.3558198835991017e-02 6.0397992497330660e-03 2.8925395902783500e-03 2.4828318725451581e-01 9.3494088011256998e-02 1.1399401066455753e-01 1.4713826842296002e-01 1.4180198972816427e-01 2.1767519773562238e-01 1.6113176464557086e-01 1.4935046253799722e-01 2.0460521190962488e-01 3.0961052540243401e-02 6.5147076014412886e-02 3.3122914586056769e-02 3.5069212930953261e-02 6.4115695191913763e-02 4.4473779296483398e-02 3.6500355688064361e-02 3.4235414978138673e-02 1.8929795177559657e-02 9.4836999025682735e-03 1.6094942378321195e-02 8.5164208065524917e-03 1.6265561061536482e-02 9.1777261327275796e-04 6.2475522450278453e-01 2.1764126589066757e-01 3.2028146368586119e-01 1.9279133062663401e-01 2.9747595822858464e-01 1.0580455654373991e-01 1.0151593699861161e-01 7.6351035289837679e-02 1.1929893764836542e-01 1.1471652980077802e-01 1.7265641981563845e-01 6.4379746069734414e-02 2.3987520581521304e-01 5.0610338743146099e-01 1.9007899616333730e+00 1.9463568124830037e+00 1.7745553358802983e+00 1.8062700756975176e+00 1.6766571625943743e+00 1.5183092295547338e+00 8.3256028258710235e-01 8.5604146030034045e-01 7.7143007493212368e-01 1.5339663942019166e+00 1.7604403318152790e+00 1.2003604726172143e-02 1.5000327259193175e-02 1.2641494643117099e-01 7.1702539634597218e-02 9.8158076551667181e-02 7.6416881778757051e-01 9.6629572596476820e-01 8.7332943572590294e-01 9.4392426538204566e-01 4.0663650275545049e-01 1.0203580424213592e+00 8.5478702206027224e-01 5.0236229783672082e-01 4.1123240058379384e-01 3.0444084928044168e-01 2.4511003087094257e-01 2.0094490779595936e-01 4.4875813668749376e-01 3.3542787183403078e-01 5.7426787583170547e-01 5.2934806954820213e-01 5.9396541930603353e-01 4.3080457760195334e-01 2.9388908302491495e-01 2.5009918091779215e-01 9.9897252145495635e-02 1.4162359816356179e-01 8.9638004341262456e-01 7.2436970981403648e-01 7.4434837461384706e-01 6.3809719045175717e-01 7.7755284255995250e-01 5.6987863903825953e-01 5.7378623857624822e-01 6.3085591814984632e-01 9.1912218702624460e-01 1.6086567677377692e-01 3.3649462807599417e-01 4.0821481672488669e-01 4.3238803043484625e-01 1.7831445040082086e-01 1.9372703784664200e-01 2.1103288163291600e-01 1.0825012247841831e-01 4.9307371816582027e-02 3.9721026329390646e-02 3.4790547200324795e-01 4.4131757836911652e-02 1.7270879004735278e+00 1.5737551368593241e+00 1.4100589868066877e+00 1.4251250371482822e+00 1.3198072292590366e+00 1.3418854262141986e+00 1.8177485208204192e+00 1.5981610236821382e+00 1.6009646318580049e+00 1.3895245346734488e+00 1.5667341319528285e+00 1.6346139380091600e+00 1.6593633108755044e+00 1.3395560748814317e+00 1.1011612897011966e+00 1.3744145512800898e+00 1.2406757604733101e+00 1.3102034810274878e+00 1.5283113027049660e+00 1.0704244212187009e+00 1.2630541669217275e+00 1.3876279487651775e+00 1.4699945965668295e+00 1.2699544307004338e+00 1.5154363974242351e+00 1.3374072279119833e+00 1.3220430357075723e+00 1.2081984897104201e+00 1.0248467596375468e+00 8.4003711996148089e-01 8.9005671771274320e-01 9.7672125063980753e-01 1.0636963082234754e+00 9.0044456012215224e-01 1.2872351301505689e+00 1.3699376294086891e+00 1.3907140986200104e+00 9.8835686007725077e-01 1.1648396069503217e+00 1.0461823257879890e+00 2.9480534337598674e-01 2.3678835673225873e-01 1.2651861950408444e-01 1.4757117068128386e-01 8.2125858030791921e-02 3.5728102414201213e-02 5.8382686569961317e-02 6.6623075389933492e-02 1.1952620116618899e-01 1.2668835753057319e+00 3.8754730808163340e-01 1.5003824088992777e+00 1.3524951061712707e+00 1.4578666465650456e+00 1.8391924487969029e+00 1.7580407273926801e+00 1.8953517296220750e+00 1.0187696687586931e+00 8.9807906895786038e-01 1.0388869995112755e+00 8.3974108422589588e-01 1.1110427269369239e+00 1.1137096026434818e+00 1.0145078050201926e+00 1.1758185569028632e+00 1.1185506172850395e+00 1.2481773333432837e+00 1.3269444215220463e+00 1.6290289665856541e+00 1.2183768743072072e+00 1.1703645056420964e+00 1.3607035249684716e+00 1.6072140731304203e+00 1.5582593091589780e+00 1.7491956443283430e+00 1.4697164123797073e+00 1.6665811819782212e+00 1.8380292240845213e+00 1.6425949533640964e+00 1.6746525718262080e+00 8.3730988137790785e-01 6.4514757681292179e-01 6.6077176710961849e-01 2.7807275896244155e-02 2.0259182998759690e-02 1.5900792656849627e-02 9.1502829837792565e-02 1.0899250673785332e-01 5.4293534655013798e-02 1.0279539445152469e-01 3.1241824205250646e-01 5.0891012407252842e-02 4.8579251775295644e-02 9.1397371876982297e-02 4.1135152422092613e-01 3.3856881913743919e-01 3.9074445336469898e-01 3.0850283205796392e-01 3.6312789936176654e-01 3.4729897995353898e-01 4.2306613101372825e-01 4.9188751767019978e-01 8.1414782266690633e-02 7.2169747087403327e-02 1.2513840636060117e-01 1.6779833471498209e-01 1.4303799619327329e-01 1.4690337884900967e-01 4.4764982641989366e-02 2.9097002750225576e-01 1.7781102813918165e-01 1.8708660064309557e-01 3.7845866584255794e-01 2.1816110900868324e-01 2.3058379253601874e-01 2.1112789325384812e-01 2.7499623880595997e-01 2.9294996762983738e-01 1.8987936772951097e-01 2.1014560924173957e+00 1.0021845149253137e+00 1.0300146686174287e+00 1.1402412298136646e+00 1.0229149890791613e+00 7.7547317674589378e-01 3.0301375320372474e-02 2.5157531601829763e-02 6.3061127642512899e-02 3.4356509322910414e-02 1.7436744203515775e+00 1.9138139588350660e+00 2.0208641634389970e+00 1.9901752775656743e+00 2.0454652673119798e+00 2.0972566849406871e+00 1.8390994257816926e+00 1.9147624593958308e+00 1.3207372598232057e+00 1.5183279455334073e+00 1.4391420452325820e+00 1.8014085226282919e+00 1.6858932067683861e+00 1.6741785392278707e+00 1.7288397195955318e+00 1.9896504866786624e+00 2.0695339985406327e+00 1.8975415878260824e+00 1.0012636281581490e-01 7.7295812787318030e-01 8.5040450730909845e-01 8.5626919732355500e-01 9.2870204162664582e-01 8.0901614014915879e-01 7.1578021288334193e-01 1.0089944150890062e+00 8.9987462794990059e-01 1.1536846296294370e+00 1.0201112001660011e+00 6.9044124092104597e-01 7.1547528424044193e-01 8.0313000860978145e-01 3.6681826846368815e-01 5.6913651015259314e-01 5.1267291529879566e-01 7.0297971577415719e-01 5.8354215195939929e-0