<?xml version="1.0"?>
<VTKFile type="UnstructuredGrid"  byte_order="LittleEndian">
<UnstructuredGrid>
<Piece NumberOfPoints="846" NumberOfCells=" 1692">
<Points>
<DataArray type="Float32" NumberOfComponents="3" format="ascii">
11.611154 -0.230337 0.000000 0.938949 -3.631438 0.000000 31.990580 -3.631438 0.000000 0.938949 5.141368 0.000000 31.990580 5.141368 0.000000 11.606398 -0.135052 0.000000 11.592178 -0.040714 0.000000 11.568637 0.051740 0.000000 11.536007 0.141390 0.000000 11.494613 0.227346 0.000000 11.444866 0.308753 0.000000 11.387260 0.384803 0.000000 11.322370 0.454739 0.000000 11.250837 0.517866 0.000000 11.173375 0.573558 0.000000 11.090754 0.621260 0.000000 11.003792 0.660498 0.000000 10.913356 0.690883 0.000000 10.820344 0.712112 0.000000 10.725680 0.723975 0.000000 10.630306 0.726354 0.000000 10.535170 0.719224 0.000000 10.441215 0.702657 0.000000 10.349377 0.676818 0.000000 10.260568 0.641963 0.000000 10.175671 0.598439 0.000000 10.095529 0.546678 0.000000 10.020939 0.487195 0.000000 9.952642 0.420580 0.000000 9.891318 0.347496 0.000000 9.837575 0.268670 0.000000 9.791948 0.184884 0.000000 9.754889 0.096972 0.000000 9.726769 0.005807 0.000000 9.707865 -0.087706 0.000000 9.698366 -0.182636 0.000000 9.698366 -0.278039 0.000000 9.707865 -0.372969 0.000000 9.726769 -0.466481 0.000000 9.754889 -0.557647 0.000000 9.791948 -0.645559 0.000000 9.837575 -0.729345 0.000000 9.891318 -0.808171 0.000000 9.952642 -0.881255 0.000000 10.020939 -0.947870 0.000000 10.095529 -1.007353 0.000000 10.175671 -1.059114 0.000000 10.260568 -1.102638 0.000000 10.349377 -1.137493 0.000000 10.441215 -1.163332 0.000000 10.535170 -1.179899 0.000000 10.630306 -1.187029 0.000000 10.725680 -1.184650 0.000000 10.820344 -1.172787 0.000000 10.913356 -1.151558 0.000000 11.003792 -1.121173 0.000000 11.090754 -1.081935 0.000000 11.173375 -1.034233 0.000000 11.250837 -0.978541 0.000000 11.322370 -0.915414 0.000000 11.387260 -0.845478 0.000000 11.444866 -0.769428 0.000000 11.494613 -0.688021 0.000000 11.536007 -0.602065 0.000000 11.568637 -0.512415 0.000000 11.592178 -0.419961 0.000000 11.606398 -0.325623 0.000000 1.909312 -3.631438 0.000000 2.879675 -3.631438 0.000000 3.850039 -3.631438 0.000000 4.820402 -3.631438 0.000000 5.790766 -3.631438 0.000000 6.761129 -3.631438 0.000000 7.731493 -3.631438 0.000000 8.701856 -3.631438 0.000000 9.672219 -3.631438 0.000000 10.642583 -3.631438 0.000000 11.612947 -3.631438 0.000000 12.583310 -3.631438 0.000000 13.553674 -3.631438 0.000000 14.524036 -3.631438 0.000000 15.494400 -3.631438 0.000000 16.464764 -3.631438 0.000000 17.435127 -3.631438 0.000000 18.405491 -3.631438 0.000000 19.375854 -3.631438 0.000000 20.346218 -3.631438 0.000000 21.316582 -3.631438 0.000000 22.286943 -3.631438 0.000000 23.257307 -3.631438 0.000000 24.227671 -3.631438 0.000000 25.198034 -3.631438 0.000000 26.168398 -3.631438 0.000000 27.138762 -3.631438 0.000000 28.109125 -3.631438 0.000000 29.079489 -3.631438 0.000000 30.049852 -3.631438 0.000000 31.020216 -3.631438 0.000000 0.938949 4.166612 0.000000 0.938949 3.191856 0.000000 0.938949 2.217100 0.000000 0.938949 1.242343 0.000000 0.938949 0.267587 0.000000 0.938949 -0.707169 0.000000 0.938949 -1.681925 0.000000 0.938949 -2.656682 0.000000 31.990580 -2.656682 0.000000 31.990580 -1.681925 0.000000 31.990580 -0.707169 0.000000 31.990580 0.267587 0.000000 31.990580 1.242343 0.000000 31.990580 2.217100 0.000000 31.990580 3.191856 0.000000 31.990580 4.166612 0.000000 31.020216 5.141368 0.000000 30.049852 5.141368 0.000000 29.079489 5.141368 0.000000 28.109125 5.141368 0.000000 27.138762 5.141368 0.000000 26.168398 5.141368 0.000000 25.198034 5.141368 0.000000 24.227671 5.141368 0.000000 23.257307 5.141368 0.000000 22.286943 5.141368 0.000000 21.316582 5.141368 0.000000 20.346218 5.141368 0.000000 19.375854 5.141368 0.000000 18.405491 5.141368 0.000000 17.435127 5.141368 0.000000 16.464764 5.141368 0.000000 15.494400 5.141368 0.000000 14.524036 5.141368 0.000000 13.553674 5.141368 0.000000 12.583310 5.141368 0.000000 11.612947 5.141368 0.000000 10.642583 5.141368 0.000000 9.672219 5.141368 0.000000 8.701856 5.141368 0.000000 7.731493 5.141368 0.000000 6.761129 5.141368 0.000000 5.790766 5.141368 0.000000 4.820402 5.141368 0.000000 3.850039 5.141368 0.000000 2.879675 5.141368 0.000000 1.909312 5.141368 0.000000 6.213740 4.325579 0.000000 14.986642 4.341769 0.000000 6.239867 -2.815976 0.000000 14.914520 -2.805111 0.000000 21.763037 -2.767356 0.000000 18.965113 -2.697294 0.000000 26.641615 -2.620223 0.000000 24.712900 4.355576 0.000000 27.623917 4.301037 0.000000 20.917355 4.299607 0.000000 18.046444 4.305785 0.000000 1.730989 0.746246 0.000000 31.161549 0.780741 0.000000 9.243063 4.334993 0.000000 12.174256 4.307411 0.000000 8.137424 -2.954031 0.000000 13.040211 -2.842186 0.000000 16.949945 -2.791079 0.000000 4.450750 4.365880 0.000000 4.429941 -2.752015 0.000000 28.645960 -2.819781 0.000000 23.738340 -2.869989 0.000000 22.772125 4.337829 0.000000 31.146477 2.703894 0.000000 1.785866 2.684387 0.000000 1.744228 -1.109605 0.000000 31.223814 -1.230729 0.000000 10.239471 -2.967432 0.000000 10.274787 -1.196976 0.000000 10.463922 -1.260771 0.000000 29.509846 4.346218 0.000000 2.388354 4.195981 0.000000 2.397423 -2.810128 0.000000 30.540989 -2.684464 0.000000 9.187176 -3.030515 0.000000 9.591359 -2.223571 0.000000 9.996834 -1.048750 0.000000 13.997643 -2.874640 0.000000 14.342303 -2.048979 0.000000 15.210531 -2.000845 0.000000 14.766538 -1.356664 0.000000 15.510286 -1.286167 0.000000 15.072823 -0.709485 0.000000 15.828193 -0.566712 0.000000 14.382086 -0.767328 0.000000 14.634944 -0.165344 0.000000 14.026849 -0.230035 0.000000 14.244057 0.311559 0.000000 13.626031 0.234905 0.000000 11.693396 -0.069855 0.000000 13.876920 0.762194 0.000000 14.452621 0.862570 0.000000 13.345675 0.706813 0.000000 11.589750 0.220217 0.000000 13.577069 1.170499 0.000000 13.058270 1.112137 0.000000 13.429837 -0.261025 0.000000 11.684280 -0.387415 0.000000 13.274992 1.597140 0.000000 12.719330 1.528342 0.000000 11.339023 0.539476 0.000000 11.473826 0.390485 0.000000 12.857061 0.688678 0.000000 12.942307 2.014972 0.000000 12.418932 1.911685 0.000000 13.510094 2.106022 0.000000 12.209859 1.482465 0.000000 11.945249 1.847887 0.000000 10.982281 0.773847 0.000000 11.176541 0.679611 0.000000 11.783877 1.421553 0.000000 11.528198 1.783824 0.000000 11.658269 2.188757 0.000000 11.227578 2.110803 0.000000 10.684778 0.810281 0.000000 12.044764 1.138982 0.000000 11.360978 2.557593 0.000000 10.890368 2.449248 0.000000 10.758615 1.981733 0.000000 10.450122 2.320296 0.000000 10.307449 1.914603 0.000000 10.274925 0.749786 0.000000 10.034666 2.208013 0.000000 9.909026 1.780090 0.000000 9.643082 2.096909 0.000000 9.515828 1.713569 0.000000 9.259307 1.994579 0.000000 9.152197 1.619217 0.000000 9.858688 0.437147 0.000000 8.855213 1.900837 0.000000 8.743721 1.489964 0.000000 8.402427 1.803408 0.000000 8.271428 1.317217 0.000000 10.006891 0.583756 0.000000 9.741052 0.267141 0.000000 7.896369 1.686505 0.000000 7.750777 1.138365 0.000000 7.328423 1.556429 0.000000 7.182693 0.950442 0.000000 7.650942 0.563232 0.000000 9.655491 -0.542063 0.000000 9.624539 -0.239505 0.000000 9.632111 -0.023897 0.000000 9.736917 -0.731500 0.000000 9.852067 -0.901441 0.000000 6.691464 1.417492 0.000000 6.535766 0.743075 0.000000 6.008292 1.247481 0.000000 5.831947 0.536408 0.000000 8.060966 2.203304 0.000000 8.642754 0.994727 0.000000 5.270512 1.059245 0.000000 5.072136 0.294332 0.000000 6.404013 0.104639 0.000000 9.436082 1.286834 0.000000 10.522230 2.774119 0.000000 9.727794 2.565038 0.000000 11.855865 2.657815 0.000000 9.003013 2.245258 0.000000 5.470088 1.814690 0.000000 4.692387 1.624579 0.000000 10.192280 1.552337 0.000000 11.414863 1.425753 0.000000 6.896851 2.060212 0.000000 13.052340 2.615839 0.000000 13.765751 2.682264 0.000000 13.299011 3.251025 0.000000 14.166931 2.158619 0.000000 16.244463 -1.224633 0.000000 16.618961 -0.462941 0.000000 16.112446 0.187510 0.000000 16.942362 0.315790 0.000000 16.431042 0.971609 0.000000 17.264614 1.120485 0.000000 17.814222 0.436074 0.000000 18.141897 1.266881 0.000000 18.711147 0.556697 0.000000 19.047148 1.417748 0.000000 19.629898 0.690374 0.000000 16.764652 1.772339 0.000000 19.972466 1.561397 0.000000 20.559954 0.825781 0.000000 20.213146 -0.050039 0.000000 21.149971 0.083785 0.000000 21.501495 0.968899 0.000000 22.096746 0.221845 0.000000 22.448715 1.113318 0.000000 23.038704 0.393467 0.000000 23.399372 1.262278 0.000000 24.061245 0.402896 0.000000 24.367718 1.389744 0.000000 24.957886 0.644158 0.000000 25.314421 1.578443 0.000000 25.915857 0.792214 0.000000 26.268871 1.725894 0.000000 26.873755 0.936429 0.000000 25.567320 -0.114193 0.000000 27.230898 1.827845 0.000000 27.824532 1.065497 0.000000 27.477102 0.169410 0.000000 28.426754 0.304139 0.000000 28.152376 1.952568 0.000000 21.853573 1.834755 0.000000 17.143105 -1.127558 0.000000 19.378563 2.295556 0.000000 22.676861 -0.547377 0.000000 23.752226 2.159815 0.000000 20.799393 -0.800107 0.000000 28.079056 -0.591923 0.000000 29.039242 -0.449473 0.000000 14.407937 2.794477 0.000000 14.868938 2.196803 0.000000 15.188824 2.856086 0.000000 19.863426 -0.924097 0.000000 4.919279 2.413124 0.000000 4.101938 2.218625 0.000000 3.877254 1.398847 0.000000 11.511405 3.080449 0.000000 26.675924 2.629801 0.000000 27.120728 -0.733262 0.000000 20.313175 2.443359 0.000000 5.706259 2.596327 0.000000 18.381199 -0.273607 0.000000 20.438148 -1.682280 0.000000 29.480492 0.588225 0.000000 19.690966 3.226192 0.000000 12.080115 3.181108 0.000000 3.264708 2.007358 0.000000 3.507535 2.835699 0.000000 18.782013 2.985049 0.000000 27.721119 -1.472316 0.000000 5.160500 3.184827 0.000000 11.579233 1.158122 0.000000 11.294587 1.130821 0.000000 11.122089 1.361280 0.000000 11.485770 0.925031 0.000000 11.041150 1.112254 0.000000 10.880638 1.291120 0.000000 10.797020 1.063377 0.000000 10.657854 1.239148 0.000000 10.473845 0.792308 0.000000 10.579350 1.054523 0.000000 10.452832 1.194743 0.000000 11
[...]
<CellData Scalars="Label">
<DataArray type="Int32" Name="Label" format="ascii">
1 1 1 1 1 1 1 1 1 1 1 1 1 1 1 1 1 1 1 1 1 1 1 1 1 1 1 1 1 1 1 1 1 1 1 1 1 1 1 1 1 1 1 1 1 1 1 1 1 1 1 1 1 1 1 1 1 1 1 1 1 1 1 1 1 1 1 1 1 1 1 1 1 1 1 1 1 1 1 1 1 1 1 1 1 1 1 1 1 1 1 1 1 1 1 1 1 1 1 1 1 1 1 1 1 1 1 1 1 1 1 1 1 1 1 1 1 1 1 1 1 1 1 1 1 1 1 1 1 1 1 1 1 1 1 1 1 1 1 1 1 1 1 1 1 1 1 1 1 1 1 1 1 1 1 1 1 1 1 1 1 1 1 1 1 1 1 1 1 1 1 1 1 1 1 1 1 1 1 1 1 1 1 1 1 1 1 1 1 1 1 1 1 1 1 1 1 1 1 1 1 1 1 1 1 1 1 1 1 1 1 1 1 1 1 1 1 1 1 1 1 1 1 1 1 1 1 1 1 1 1 1 1 1 1 1 1 1 1 1 1 1 1 1 1 1 1 1 1 1 1 1 1 1 1 1 1 1 1 1 1 1 1 1 1 1 1 1 1 1 1 1 1 1 1 1 1 1 1 1 1 1 1 1 1 1 1 1 1 1 1 1 1 1 1 1 1 1 1 1 1 1 1 1 1 1 1 1 1 1 1 1 1 1 1 1 1 1 1 1 1 1 1 1 1 1 1 1 1 1 1 1 1 1 1 1 1 1 1 1 1 1 1 1 1 1 1 1 1 1 1 1 1 1 1 1 1 1 1 1 1 1 1 1 1 1 1 1 1 1 1 1 1 1 1 1 1 1 1 1 1 1 1 1 1 1 1 1 1 1 1 1 1 1 1 1 1 1 1 1 1 1 1 1 1 1 1 1 1 1 1 1 1 1 1 1 1 1 1 1 1 1 1 1 1 1 1 1 1 1 1 1 1 1 1 1 1 1 1 1 1 1 1 1 1 1 1 1 1 1 1 1 1 1 1 1 1 1 1 1 1 1 1 1 1 1 1 1 1 1 1 1 1 1 1 1 1 1 1 1 1 1 1 1 1 1 1 1 1 1 1 1 1 1 1 1 1 1 1 1 1 1 1 1 1 1 1 1 1 1 1 1 1 1 1 1 1 1 1 1 1 1 1 1 1 1 1 1 1 1 1 1 1 1 1 1 1 1 1 1 1 1 1 1 1 1 1 1 1 1 1 1 1 1 1 1 1 1 1 1 1 1 1 1 1 1 1 1 1 1 1 1 1 1 1 1 1 1 1 1 1 1 1 1 1 1 1 1 1 1 1 1 1 1 1 1 1 1 1 1 1 1 1 1 1 1 1 1 1 1 1 1 1 1 1 1 1 1 1 1 1 1 1 1 1 1 1 1 1 1 1 1 1 1 1 1 1 1 1 1 1 1 1 1 1 1 1 1 1 1 1 1 1 1 1 1 1 1 1 1 1 1 1 1 1 1 1 1 1 1 1 1 1 1 1 1 1 1 1 1 1 1 1 1 1 1 1 1 1 1 1 1 1 1 1 1 1 1 1 1 1 1 1 1 1 1 1 1 1 1 1 1 1 1 1 1 1 1 1 1 1 1 1 1 1 1 1 1 1 1 1 1 1 1 1 1 1 1 1 1 1 1 1 1 1 1 1 1 1 1 1 1 1 1 1 1 1 1 1 1 1 1 1 1 1 1 1 1 1 1 1 1 1 1 1 1 1 1 1 1 1 1 1 1 1 1 1 1 1 1 1 1 1 1 1 1 1 1 1 1 1 1 1 1 1 1 1 1 1 1 1 1 1 1 1 1 1 1 1 1 1 1 1 1 1 1 1 1 1 1 1 1 1 1 1 1 1 1 1 1 1 1 1 1 1 1 1 1 1 1 1 1 1 1 1 1 1 1 1 1 1 1 1 1 1 1 1 1 1 1 1 1 1 1 1 1 1 1 1 1 1 1 1 1 1 1 1 1 1 1 1 1 1 1 1 1 1 1 1 1 1 1 1 1 1 1 1 1 1 1 1 1 1 1 1 1 1 1 1 1 1 1 1 1 1 1 1 1 1 1 1 1 1 1 1 1 1 1 1 1 1 1 1 1 1 1 1 1 1 1 1 1 1 1 1 1 1 1 1 1 1 1 1 1 1 1 1 1 1 1 1 1 1 1 1 1 1 1 1 1 1 1 1 1 1 1 1 1 1 1 1 1 1 1 1 1 1 1 1 1 1 1 1 1 1 1 1 1 1 1 1 1 1 1 1 1 1 1 1 1 1 1 1 1 1 1 1 1 1 1 1 1 1 1 1 1 1 1 1 1 1 1 1 1 1 1 1 1 1 1 1 1 1 1 1 1 1 1 1 1 1 1 1 1 1 1 1 1 1 1 1 1 1 1 1 1 1 1 1 1 1 1 1 1 1 1 1 1 1 1 1 1 1 1 1 1 1 1 1 1 1 1 1 1 1 1 1 1 1 1 1 1 1 1 1 1 1 1 1 1 1 1 1 1 1 1 1 1 1 1 1 1 1 1 1 1 1 1 1 1 1 1 1 1 1 1 1 1 1 1 1 1 1 1 1 1 1 1 1 1 1 1 1 1 1 1 1 1 1 1 1 1 1 1 1 1 1 1 1 1 1 1 1 1 1 1 1 1 1 1 1 1 1 1 1 1 1 1 1 1 1 1 1 1 1 1 1 1 1 1 1 1 1 1 1 1 1 1 1 1 1 1 1 1 1 1 1 1 1 1 1 1 1 1 1 1 1 1 1 1 1 1 1 1 1 1 1 1 1 1 1 1 1 1 1 1 1 1 1 1 1 1 1 1 1 1 1 1 1 1 1 1 1 1 1 1 1 1 1 1 1 1 1 1 1 1 1 1 1 1 1 1 1 1 1 1 1 1 1 1 1 1 1 1 1 1 1 1 1 1 1 1 1 1 1 1 1 1 1 1 1 1 1 1 1 1 1 1 1 1 1 1 1 1 1 1 1 1 1 1 1 1 1 1 1 1 1 1 1 1 1 1 1 1 1 1 1 1 1 1 1 1 1 1 1 1 1 1 1 1 1 1 1 1 1 1 1 1 1 1 1 1 1 1 1 1 1 1 1 1 1 1 1 1 1 1 1 1 1 1 1 1 1 1 1 1 1 1 1 1 1 1 1 1 1 1 1 1 1 1 1 1 1 1 1 1 1 1 1 1 1 1 1 1 1 1 1 1 1 1 1 1 1 1 1 1 1 1 1 1 1 1 1 1 1 1 1 1 1 1 1 1 1 1 1 1 1 1 1 1 1 1 1 1 1 1 1 1 1 1 1 1 1 1 1 1 1 1 1 1 1 1 1 1 1 1 1 1 1 1 1 1 1 1 1 1 1 1 1 1 1 1 1 1 1 1 1 1 1 1 1 1 1 1 1 1 1 1 1 1 1 1 1 1 1 1 1 1 1 1 1 1 1 1 1 1 1 5 5 5 5 5 5 5 5 5 5 5 5 5 5 5 5 5 5 5 5 5 5 5 5 5 5 5 5 5 5 5 5 5 5 5 5 5 5 5 5 5 5 5 5 5 5 5 5 5 5 5 5 5 5 5 5 5 5 5 5 5 5 5 4 4 4 4 4 4 4 4 4 4 4 4 4 4 4 4 4 4 4 4 4 4 4 4 4 4 4 4 4 4 4 4 2 2 2 2 2 2 2 2 2 3 3 3 3 3 3 3 3 3 4 4 4 4 4 4 4 4 4 4 4 4 4 4 4 4 4 4 4 4 4 4 4 4 4 4 4 4 4 4 4 4 
</DataArray>
<DataArray type="Float64" Name="u" NumberOfComponents="1" format="ascii">
2.6262072039460460e-01 8.1165128733684966e-01 9.8620161452855870e-01 9.1640391579363834e-01 1.9832539821663508e-01 9.2359919905806520e-01 8.9425491063595430e-01 2.6143933565251076e-01 2.9315485491842260e-02 7.8441800841231601e-01 6.8919621599470182e-01 3.4408295530130001e-01 1.0010106039529922e+00 6.9437082048799659e-01 1.2280870442310443e-01 2.2892125356426501e-01 4.6832327226248283e-01 7.2372731422200165e-01 2.9087256909015022e-02 1.6308477143692395e+00 4.3610160810546872e-01 5.6272909817379493e-02 5.2071349409862799e-01 3.1388940135448357e-01 8.5938938086513678e-02 9.8335704080345243e-01 1.3178408918063311e+00 6.0418830303699478e-01 6.2172864693143071e-01 2.6596794241782941e-02 1.0887094991315860e+00 1.0194426802305241e+00 6.8266081298292880e-01 6.5392035264013201e-02 6.3252540240150690e-01 1.6735678549872518e-01 7.7451121819427216e-01 3.2792181768169726e-02 2.4569499506378220e-01 8.8054176525200228e-02 1.6828792915492405e+00 9.4844998790332147e-01 6.8838592370107987e-01 9.3338417858538014e-01 2.1836544631212185e-01 7.7371225966175372e-01 5.9005496068299912e-01 6.5048049623995491e-02 7.4449082911311848e-01 3.4647421256029864e-01 9.4003284650632435e-01 9.0403041037544174e-01 2.3115327836206334e-01 8.0473063133343947e-01 3.0311833112921721e-01 1.3063680957013841e+00 6.3380237270807582e-01 9.0041135605832634e-01 6.9874805240996685e-01 1.5368579608131264e-01 5.4203100058002174e-01 6.8850656813900757e-01 3.6076553654259824e-01 8.4862664716342517e-01 4.6419049054794986e-01 3.0052304141989495e-02 9.8334564470600294e-02 9.8967953900605155e-01 8.0320069246879922e-01 8.1699266535540938e-02 3.2182786454611717e-01 8.7029994726483828e-01 3.7057615404785416e-01 2.1673296417292603e-01 3.0728543505027933e-01 4.3071684012128637e-02 1.0827002164225248e+00 8.2231006845346011e-01 1.5098550702047606e+00 8.5337148045674149e-01 5.3355269638186642e-01 1.7100444511508410e+00 1.1481412101699602e-01 8.1388786651856582e-01 3.9307765357512425e-01 1.1835350439416752e+00 9.9196362390158832e-01 6.3673929424436471e-01 1.0011847633694857e+00 1.6237257780091335e-01 1.5968494584277919e+00 8.2325637003741570e-01 1.4619109449653334e+00 3.0183354495696058e-01 1.4969995887230967e+00 1.6128965453877703e-01 3.9427263211770633e-02 5.5721511506501753e-01 7.2565758994518303e-01 1.4842986771715755e-01 8.3504404159849199e-01 8.9531568978250209e-01 8.0931276647895234e-01 1.0155214875282472e+00 3.9002759992856906e-01 8.6511511234433436e-01 3.2460179548793855e-01 1.1513356272528561e+00 1.3919234541954689e-01 2.8637025208560773e-02 1.1578223656448623e+00 1.2964096624357551e+00 5.7103713639374654e-01 1.2601620230977688e+00 8.7215215733761275e-01 4.7181082362287435e-01 1.0851965238708559e+00 1.7508043979454930e+00 8.4476011830622943e-01 8.4225889331222548e-01 1.0080893114128402e+00 7.3448708956709496e-01 1.5082196626767341e+00 6.7579323071707653e-01 9.4394556749256020e-01 8.6115563845610299e-01 9.9810561089375982e-01 4.2409245903286441e-01 9.0477641256510988e-01 1.5326537179066961e+00 1.1514228743137411e+00 7.4446207336550407e-01 1.8324281978835311e+00 3.2940283492614963e-02 1.6166899080905885e+00 1.4666177535215268e+00 9.0549372748914392e-01 1.0099090086424054e+00 5.4052180391852167e-01 1.1520331229927061e+00 1.2169029692066853e+00 1.0083916169616070e-01 4.2655900713692618e-01 1.3897418805472167e-01 4.6606145193612769e-01 9.9402763929842908e-01 1.2639061664744142e-01 8.9061431270070524e-01 6.9827242421915653e-02 1.7827177913340206e-01 4.1047687659187670e-01 7.0765090544215692e-01 8.0139273288254556e-02 4.5391305575355131e-02 1.5379962414518811e-01 1.1372961573354532e+00 4.0815694145914572e-02 5.6438693165644394e-01 6.0847025636000052e-01 2.2522818584612170e-01 5.9706718701559036e-01 1.0443948538190551e+00 5.1160643408753731e-02 1.7621525945286312e+00 3.9187469718446810e-01 7.2713092107089894e-01 1.4657055371864773e+00 6.7876414278656005e-01 3.7427013818267962e-01 1.2220162465019833e+00 8.2087082556805591e-01 4.9993468453679002e-01 8.5079100322089096e-01 8.7361697417630668e-01 9.9021227720915317e-01 9.1967837678894659e-02 4.7048707953818616e-02 1.0325966852279640e+00 1.3843980316802025e+00 1.2544483485082727e+00 1.3982864361891170e+00 1.1951574833705512e+00 3.1140015228438683e-01 8.2209493812907886e-01 8.6000617966969761e-01 9.7712992563889733e-01 6.9769154986352477e-01 2.6691634293952465e-01 3.8367363756090989e-01 9.4243714855290928e-01 6.4259827229050337e-01 1.3238419072655738e+00 6.6001315905818048e-01 9.8386116901310150e-01 9.4908623377609747e-01 1.0001892945811028e+00 6.0615257925132693e-01 1.4837936825165385e-01 6.3194048267987224e-01 2.7645807571640715e-02 3.6348276830079473e-01 1.1505709759524039e+00 5.9153662856462008e-01 8.3796070740859774e-01 3.6053107152976327e-01 6.7266277454676615e-01 9.8663969896817427e-01 1.8535932237472266e-01 1.1377932688762282e+00 1.5971604342266263e+00 1.8298980133584650e+00 1.1754669721503688e+00 8.6220714157613354e-01 1.3415168463941400e+00 4.1014664479954532e-01 6.5859977653067170e-01 7.4119899422040947e-01 1.8330380013871608e+00 1.0109062715758941e+00 9.9997664253056096e-01 1.1081357518922970e+00 3.3610719360680019e-01 1.0654880333645962e+00 1.2365916225422127e+00 7.9794427378624988e-01 7.3897690264513027e-01 9.3661462519983463e-01 8.9038098798555465e-01 2.9165771049265915e-01 8.2506096285931663e-01 1.8751810263146163e+00 9.3231922673570639e-02 1.8761376136635799e+00 8.4211134756674777e-01 1.7587966820181631e+00 1.3398487808893544e+00 3.6156971414091499e-01 7.7596500011023228e-01 5.9399710839802822e-01 1.3327135609359314e-01 1.0445673001095448e+00 7.4637506040819457e-01 2.4485651820898532e-01 5.0443473233230263e-01 1.2963956130974523e+00 9.9405112593610068e-01 1.0090610943776133e+00 1.5053810507780976e+00 6.9995590872996116e-01 1.0763000866143821e+00 7.6649495955549851e-01 1.9334119642276587e-01 7.3526899927100708e-01 9.2368605214326638e-01 1.2376645015813614e+00 7.7237711124074004e-01 1.1139392011876543e+00 2.7671624703153841e-01 1.0049035062340632e+00 1.4674297035614619e+00 1.7755803348170753e+00 1.7713179713262073e+00 3.9004330775153873e-01 9.7876898554395575e-01 1.3869254169611325e+00 8.2826436271581461e-01 5.5308664676006064e-02 1.0919854957762052e+00 9.5384306042435485e-01 1.8582250362596686e-01 1.8264797648445850e+00 1.8401070289494648e+00 1.0237164189300412e+00 1.8467157581125409e+00 7.7614871179681089e-01 9.9742900738256224e-01 8.4249463391935731e-02 1.8063537236913940e-01 5.1048400189650645e-01 6.3144757164014287e-01 9.2577022301527723e-01 1.6436948570473597e+00 5.8853582097956170e-01 5.3206682501347569e-01 4.2706686919852138e-01 1.2998396409588326e+00 6.5268907368206883e-02 1.1549541241171364e+00 3.1290636173193281e-01 8.6647801470626418e-01 2.5177205402142222e-01 7.8247424171063162e-01 2.5680502843953418e-01 1.0244574571810925e+00 1.6854779538161144e+00 9.7535710186938362e-01 1.2705632807142224e+00 1.4414927762890266e+00 2.3096847838803655e-01 5.6811587388669926e-01 1.2048254191156955e+00 1.5860885769580120e+00 1.5928366600708252e+00 1.2139848565022708e+00 1.8174114859205731e-01 1.2220392977214520e+00 1.2000523015161468e+00 6.4956664723160334e-02 1.4782804316474545e+00 1.3393233249540044e+00 1.0977398673713418e-01 7.3496694324763889e-01 7.8655783442467667e-02 4.7187227205856297e-01 9.7858859075554527e-02 7.7904914525368518e-02 3.0500614518023023e-02 5.1502456171397504e-01 2.2510016277497352e-01 9.9833112527707391e-01 1.0704262441287664e+00 2.9297107580823223e-01 6.9350228179112627e-01 9.7569605295404271e-01 9.6183576758195810e-01 9.9320455642726857e-01 1.0058795134345402e+00 9.0083113524278047e-01 8.9343598167848193e-01 8.3049991292051573e-01 9.7307604720956076e-01 8.0696096892224900e-01 9.8772626874131808e-01 1.4578596451208807e+00 7.7003665160053059e-01 8.4648207599782588e-01 1.4056019852704029e+00 1.1402059091654757e-01 6.9853053309784341e-01 2.2893482841740789e-01 4.0887898112205118e-01 7.2189063784688856e-01 9.8781078891783780e-01 8.7180638479467931e-01 8.2694120905865781e-02 1.1851348620483311e+00 6.7910318478833709e-01 1.0898920513064374e+00 2.4908002418125091e-01 6.8951280762990119e-01 1.0671170251113131e+00 1.0141728536204333e+00 6.5681136375085269e-02 7.4369680898399837e-01 1.2723373700201623e+00 8.4671323727725967e-01 6.7839518375408381e-01 5.6116300448591017e-01 2.2599436562793435e-01 1.3932448783528413e+00 1.0054204428708153e+00 6.2765282635246478e-01 2.5180332786441145e-01 1.9194125606024528e+00 8.3249613989374849e-01 4.7383386037979525e-01 1.9222269178836440e+00 9.1255905496901391e-01 7.9188228991938714e-01 8.7765714196710121e-01 1.4242799347649595e+00 1.5608735914251306e+00 7.2900830860285692e-01 9.4784473446599060e-01 9.9667933898651206e-01 4.5027121061156153e-02 3.1348600883528732e-01 4.4744950782503423e-01 9.9078800074606699e-01 7.0573599341745186e-01 6.7394792013360583e-01 7.6299113563181220e-01 8.5581063385223055e-01 6.4187710467241943e-01 9.8373965579547273e-01 7.8561102779774616e-01 1.1923525021428422e-01 8.3837704378940148e-01 7.8134085863023217e-01 1.7871656429163435e-01 6.2231460028565733e-01 5.5453530249370364e-01 1.3014305055409854e+00 6.7168229236078425e-01 1.0026139883291090e+00 1.2108381113012490e+00 5.8871993823558205e-02 3.8012502347931459e-01 8.2261480331636205e-01 9.9807693882435800e-01 1.7245601861202293e+00 2.7303802404398747e-01 1.5741679281308993e+00 9.1741114640432220e-01 1.2201696521884200e+00 5.4484239307498483e-01 4.3575809868677295e-01 7.9098330754684620e-01 1.4479915995289222e-01 9.7978315055917431e-01 9.8268082645968602e-01 7.7353559219275825e-01 3.2173103591081442e-01 1.0117930977463807e+00 1.4343640052931788e+00 1.1399469803438051e+00 8.2442992387407554e-01 1.2638210923399953e+00 1.6228896584320263e-01 1.2973904758245700e+00 1.7274161423878664e+00 9.8077053493707156e-02 3.6496290284201133e-01 7.7370534821192505e-01 8.7793343384121747e-01 7.9363059150818505e-01 9.8756070668591456e-01 9.0297020776059012e-01 3.3800398487451977e-01 9.5374096837808975e-01 9.0391036197392460e-01 1.9172711546346073e+00 1.0059672728566502e+00 6.1519514905422068e-01 8.7000000759086671e-01 9.4006774593863573e-01 5.7182302792207496e-01 1.9176914325825285e+00 1.2530268942193690e+00 1.0091241050433979e+00 1.0124982779939278e+00 1.0610695018330938e+00 7.2083131589666283e-01 5.7143225932055586e-01 5.3457331261378427e-01 8.4904954174954317e-01 1.0840698418243204e+00 1.1861984024386325e+00 8.9768613948984743e-01 3.0744392137555576e-01 3.0083144187612887e-01 5.2721946518683227e-01 9.8100917145005262e-01 1.3692872868512449e+00 8.5716437963734449e-01 1.7265898481971957e+00 8.4088527274411562e-01 9.8889276226124956e-01 7.8049975552747664e-01 1.1302547321909326e+00 1.3494262263741632e+00 9.8123943615477993e-01 7.1249945012701277e-01 1.0121134747661924e+00 7.4618978003399450e-01 4.9383605479701764e-01 1.0183957028894468e+00 7.3459910396855177e-01 1.0664060773775144e+00 1.3377782475055722e+00 1.1012621489713708e+00 9.1773167707349923e-01 9.9966694526994315e-01 5.5400027760618353e-01 9.5121531041256779e-01 1.0392441386619455e+00 2.4479482279267947e-01 1.2990954789049947e+00 2.0564357258800103e-01 2.3928416105226599e-01 1.1864022069256031e+00 6.8341031657177265e-01 9.6675400163610048e-01 1.0312772629168947e+00 4.4998162662871322e-01 4.3882042602307436e-01 1.0009231562491934e+00 9.9903247352560709e-01 2.3323459885490941e-01 1.5752469377258727e-01 9.8276791852732359e-01 9.1973615221847616e-01 9.9526978342723393e-01 7.9823939228396679e-01 1.4706098930612921e+00 1.0232103662740304e+00 9.9480422915088162e-01 9.9293393978086830e-01 9.5144384840580853e-01 9.9299884767587765e-01 9.8055471544495643e-01 1.0038625877191509e+00 1.0021685673543916e+00 1.0026922345937861e+00 1.0019578023885511e+00 9.8291373235594937e-01 1.5622511583712828e-01 9.9757298941357730e-01 1.0023814709543259e+00 1.0041681725096741e+00 1.0404025211821082e+00 9.7510179258010488e-01 1.0036733208575435e+00 1.0504509279361862e+00 9.5984343246428150e-01 3.2525500218451131e-01 1.0009468746418024e+00 1.0034223760750076e+00 9.9538134315998894e-01 9.9915744259338268e-01 1.0008380898391016e+00 9.9713091771934892e-01 1.0028699568119208e+00 9.9055927744643046e-01 1.0036439302450728e+00 1.0000088201623385e+00 8.5366150845912991e-01 1.0231426822465726e+00 9.9519424850032090e-01 9.9843876718616675e-01 1.0015256921561630e+00 9.8770062433603012e-01 1.0135966780770667e+00 9.9117396455704387e-01 1.0124600934542574e+00 1.0203849036195529e+00 1.0132735992795274e+00 1.0154388656860314e+00 9.9329924476481746e-01 1.0041036234562561e+00 1.0409782709125819e+00 9.5453539020741074e-01 9.4859617727286261e-01 8.7851588846863005e-01 9.6074481413623058e-01 9.8477509799212626e-01 1.0638147982392328e+00 1.0717972422201083e+00 9.6528809110485048e-01 1.0117994645338715e+00 1.0307979707057107e+00 1.0842374125533829e+00 1.1972158718054755e+00 1.0479428464278067e+00 1.0544589907029318e+00 1.0360165583247856e+00 1.0270632886941962e+00 9.4055777942220231e-01 1.0174589698758512e+00 9.9528770704167968e-01 1.0163869058037824e+00 9.6321386404907194e-01 9.9647747775694928e-01 9.8837465662435520e-01 9.8697657849715892e-01 9.7509519037104764e-01 1.0067659028026024e+00 1.0104279602227870e+00 9.9095273972371345e-01 9.9695842716004157e-01 1.0102225620131438e+00 1.0091492500693662e+00 9.9979184669064125e-01 9.8995755136838670e-01 9.9360825824496646e-01 9.9284330861017334e-01 9.9736542229625746e-01 1.0072376749961451e+00 1.0096251136883547e+00 9.9425186131047438e-01 9.9519673307659962e-01 9.9670351572211868e-01 9.9901434912404374e-01 9.9211020977695896e-01 1.0034291312550101e+00 1.0040527757653384e+00 1.0940926675913218e+00 1.0038083685100450e+00 9.9801221549805053e-01 1.0022657256021150e+00 9.9642354893910867e-01 1.0017558324146170e+00 9.9818314232325656e-01 1.0080280061510825e+00 1.0023333292632852e+00 9.9789414156740897e-01 5.1778836693216335e-01 9.9371265277519905e-01 1.0032417128333004e+00 1.0037779988159654e+00 9.9887636696062110e-01 1.0098425433073812e+00 1.0001812033043560e+00 1.0139961319202442e+00 1.0025615108054184e+00 1.6415976458016754e+00 9.8599258959664537e-01 9.9829280784608854e-01 9.5262235900435099e-01 1.0216816193216616e+00 1.0015546702226148e+00 1.0835233403741582e+00 1.0094396111745840e+00 1.0097467052141358e+00 1.0473047037124088e+00 9.8712730054290188e-01 1.8251372763003409e-01 9.9533542506816208e-01 1.0154719030277235e+00 9.6675392169265129e-01 1.2002688215036033e+00 1.0222709631164735e+00 9.8399684415655242e-01 1.1067546414540563e+00 9.4463946594498838e-01 9.9821706662965193e-01 9.2538178865929432e-01 1.0101952731621460e+00 9.1635914588333178e-01 9.5070511556690973e-01 9.4071565997952078e-01 9.8962718346229139e-01 4.4909754734870977e-01 1.0181340053826560e+00 9.9277044262483960e-01 9.8106144670641404e-01 9.7750510939512958e-01 1.2115714289961939e+00 1.0696148873618554e+00 1.0151187979310623e+00 1.0853243206363483e+00 1.0354730253405422e+00 9.5849605053182607e-01 1.3641072829675056e+00 9.3354170675276116e-01 1.0666344441876006e+00 9.5671792008268108e-01 6.0340891181982104e-01 9.6614332480203280e-01 9.6703369521665805e-01 7.5634592774102027e-01 1.0137494661284913e-01 9.7800261094021168e-01 1.9698303240382670e-01 9.6846998681402452e-01 1.0156956691079073e+00 9.5032383780463170e-01 1.2849311896713453e+00 5.0008107132980129e-01 9.5686374672629315e-01 1.0145787658280028e+00 1.0343955732280476e+00 1.0029903843584491e+00 1.0754094071695555e+00 1.0329947293169608e+00 1.4777541563518146e+00 9.3053905302813134e-01 1.0219923083825968e+00 1.0077597643638025e+00 1.0446121584553918e+00 9.1576169478944847e-01 1.0219764771068602e+00 3.2910098899550883e-01 9.9921587364503339e-01 1.0103919785483888e+00 9.9713627365043811e-01 1.0016484873532994e+00 9.9396122149725696e-01 1.0011255713336920e+00 1.0865506542759498e+00 8.4052915652745841e-01 9.7061452364379819e-01 9.2490245656220660e-01 1.0296607899713883e+00 3.0180397535191267e-01 9.7401659542462948e-01 9.7843925747874105e-01 1.5365656679138415e+00 1.0074725710748720e+00 1.2926425266275937e-01 1.0394848748088421e+00 1.0551725989934695e+00 1.1408715762714241e+00 8.7705138732203336e-01 9.8170862380796553e-01 1.1077337816860466e+00 1.0010823828394237e+00 9.9866641985591353e-01 1.2011367166074682e+00 9.9509488092858367e-01 9.9618063784692679e-01 5.5865542653546052e-01 8.2732050639393240e-01 1.2038095466645409e+00 9.6956858337802077e-01 1.0452633544419296e+00 8.3105336030831589e-01 3.8266887905050873e-01 1.0058045561258049e+00 9.9584070684847181e-01 1.0229655839852367e+00 1.0922238546234042e+00 2.4395229086949624e-01 9.8435250194832480e-01 1.1128941280803171e+00 6.6