<?xml version="1.0"?>
<VTKFile type="UnstructuredGrid"  byte_order="LittleEndian">
<UnstructuredGrid>
<Piece NumberOfPoints="1246" NumberOfCells=" 2494">
<Points>
<DataArray type="Float32" NumberOfComponents="3" format="ascii">
31.800087 2.959855 0.000000 31.714458 2.907381 0.000000 31.897606 2.919569 0.000000 31.806805 2.852876 0.000000 31.876453 3.025077 0.000000 31.737167 2.802723 0.000000 31.621675 2.868949 0.000000 31.913815 2.789715 0.000000 31.980043 2.980446 0.000000 31.996405 2.840325 0.000000 32.038002 2.716415 0.000000 32.141399 2.789526 0.000000 31.762592 2.685539 0.000000 31.941677 3.101443 0.000000 31.632130 2.764819 0.000000 31.524023 2.845505 0.000000 31.911427 2.633266 0.000000 32.044025 3.055361 0.000000 32.102749 2.927578 0.000000 32.027222 2.540758 0.000000 32.182159 2.631330 0.000000 32.298775 2.709387 0.000000 32.248085 2.864960 0.000000 31.643833 2.648226 0.000000 31.791086 2.554213 0.000000 31.994150 3.187072 0.000000 31.522192 2.735924 0.000000 31.423904 2.837625 0.000000 31.878681 2.453927 0.000000 32.104057 3.157635 0.000000 32.169323 3.024949 0.000000 32.147251 2.418248 0.000000 32.349152 2.532765 0.000000 32.420330 2.790748 0.000000 32.321194 2.972429 0.000000 32.975018 2.394388 0.000000 31.323786 2.845505 0.000000 32.767357 2.285926 0.000000 32.542740 2.418502 0.000000 32.624317 2.702862 0.000000 31.423525 2.728158 0.000000 31.520132 2.612499 0.000000 31.656952 2.517564 0.000000 31.736412 2.370759 0.000000 32.032581 3.279855 0.000000 31.311274 2.741696 0.000000 31.774204 2.206662 0.000000 32.079197 2.274098 0.000000 32.235901 3.122322 0.000000 32.141697 3.248507 0.000000 32.347214 2.311868 0.000000 32.584080 3.029067 0.000000 32.394302 3.079897 0.000000 33.093601 2.172283 0.000000 32.865891 2.598780 0.000000 33.202072 2.533966 0.000000 31.201433 2.764819 0.000000 31.226133 2.868949 0.000000 32.864845 2.049916 0.000000 32.588280 2.053459 0.000000 32.812077 2.968001 0.000000 31.297264 2.625463 0.000000 31.423100 2.604861 0.000000 37.329727 4.981663 0.000000 31.133348 2.907381 0.000000 36.568726 3.387853 0.000000 32.056026 3.377509 0.000000 31.047720 2.959855 0.000000 33.618271 2.072945 0.000000 37.329727 2.840476 0.000000 32.480328 3.217444 0.000000 31.984638 2.114130 0.000000 37.329727 3.922546 0.000000 35.996437 2.749811 0.000000 33.833641 2.762419 0.000000 33.537186 2.383085 0.000000 31.517805 2.473192 0.000000 31.641819 2.262641 0.000000 31.515182 2.316188 0.000000 32.148857 3.344588 0.000000 31.173779 2.648225 0.000000 31.651825 2.127922 0.000000 31.816620 2.022498 0.000000 32.289165 2.037202 0.000000 32.336136 3.263831 0.000000 32.699852 3.175403 0.000000 33.330643 1.953457 0.000000 32.973553 1.786743 0.000000 33.085609 2.894739 0.000000 33.442169 2.874887 0.000000 31.059196 2.697367 0.000000 31.098255 2.807989 0.000000 32.552071 1.748311 0.000000 32.978298 3.175612 0.000000 31.327431 2.473192 0.000000 31.188438 2.517564 0.000000 36.322956 4.981663 0.000000 31.013744 2.859778 0.000000 35.809174 3.934186 0.000000 32.156540 3.447709 0.000000 32.063908 3.477627 0.000000 30.927732 2.929011 0.000000 30.971354 3.025077 0.000000 33.681137 1.746586 0.000000 33.934364 2.204260 0.000000 37.329727 1.758008 0.000000 36.338707 2.005105 0.000000 32.585827 3.386134 0.000000 32.028183 1.961746 0.000000 35.255249 3.061259 0.000000 35.513115 2.210956 0.000000 34.139130 3.112806 0.000000 33.592369 3.222344 0.000000 34.303299 2.627488 0.000000 32.032581 3.675399 0.000000 30.906132 3.101443 0.000000 32.056026 3.577745 0.000000 34.727913 2.820969 0.000000 34.824615 2.382622 0.000000 31.662750 1.980847 0.000000 31.389555 2.332520 0.000000 31.512226 2.139103 0.000000 32.274872 3.457560 0.000000 31.015602 2.573899 0.000000 31.864145 1.816134 0.000000 32.120277 1.752068 0.000000 32.863426 3.476278 0.000000 33.354801 1.526031 0.000000 32.863495 1.456690 0.000000 33.274635 3.273664 0.000000 30.975927 2.748393 0.000000 32.476261 1.514108 0.000000 32.230125 1.588523 0.000000 31.263926 2.348852 0.000000 31.107965 2.370756 0.000000 35.337925 4.981663 0.000000 30.901667 2.811820 0.000000 35.081032 4.193151 0.000000 32.149586 3.576452 0.000000 30.815847 2.896851 0.000000 30.863319 3.004429 0.000000 34.087437 1.506774 0.000000 33.684685 1.255194 0.000000 34.404564 1.992559 0.000000 36.404091 1.092296 0.000000 37.329727 0.675540 0.000000 35.621922 1.444459 0.000000 32.469814 3.600539 0.000000 34.544132 3.577337 0.000000 34.961628 1.741748 0.000000 33.785297 3.668640 0.000000 32.130394 3.697498 0.000000 31.994150 3.768182 0.000000 30.853659 3.187072 0.000000 30.809740 3.110436 0.000000 31.684635 1.765093 0.000000 31.508888 1.939198 0.000000 30.815226 3.279855 0.000000 33.070683 1.248614 0.000000 30.967016 2.436292 0.000000 31.330704 2.139103 0.000000 32.284767 3.732378 0.000000 30.815035 2.546712 0.000000 30.860697 2.686445 0.000000 31.917442 1.584723 0.000000 32.740189 3.798842 0.000000 33.073624 3.752134 0.000000 33.302097 1.016210 0.000000 32.743561 1.112924 0.000000 32.397289 1.270141 0.000000 32.051048 1.356056 0.000000 31.155085 2.206662 0.000000 30.984364 2.241733 0.000000 34.352894 4.981663 0.000000 30.763187 2.777519 0.000000 34.033623 4.243094 0.000000 30.759037 3.021960 0.000000 30.708460 2.922279 0.000000 34.097908 0.852880 0.000000 34.559288 1.228273 0.000000 33.600037 0.675155 0.000000 36.476578 0.096629 0.000000 35.740597 0.531027 0.000000 37.329727 -0.406928 0.000000 35.106899 0.905056 0.000000 33.402454 4.287014 0.000000 32.084412 3.847914 0.000000 31.941677 3.853811 0.000000 30.748186 3.228863 0.000000 30.665487 3.165959 0.000000 31.505129 1.714054 0.000000 31.669487 1.565249 0.000000 31.332661 1.939198 0.000000 30.791782 3.377509 0.000000 30.834154 2.330807 0.000000 30.815226 3.675399 0.000000 31.876453 3.930177 0.000000 31.714458 4.047873 0.000000 30.791782 3.577745 0.000000 37.329727 -1.489396 0.000000 31.800087 3.995399 0.000000 37.329727 -2.571864 0.000000 30.853659 3.768182 0.000000 30.783901 3.477627 0.000000 30.737047 2.414520 0.000000 32.410229 0.974689 0.000000 35.733494 -0.224871 0.000000 31.135328 2.022498 0.000000 32.451805 4.172456 0.000000 32.226830 3.973721 0.000000 30.639940 2.498232 0.000000 30.704798 2.645203 0.000000 31.776627 1.325460 0.000000 32.832245 4.326693 0.000000 33.019474 0.551645 0.000000 32.593765 0.573747 0.000000 32.114594 1.063178 0.000000 31.805880 1.034062 0.000000 30.942934 2.056633 0.000000 30.775702 2.158640 0.000000 33.367863 4.981663 0.000000 30.652842 2.812669 0.000000 30.632256 3.054162 0.000000 30.559113 2.934227 0.000000 33.835201 0.293818 0.000000 34.493813 0.580576 0.000000 33.219624 0.138283 0.000000 36.654514 -1.140811 0.000000 35.061615 0.058296 0.000000 31.942038 4.066359 0.000000 30.630518 3.304990 0.000000 30.537979 3.182908 0.000000 31.334866 1.714054 0.000000 31.500885 1.459939 0.000000 31.113192 1.816134 0.000000 30.688982 3.447709 0.000000 30.713984 3.697499 0.000000 31.621675 4.086305 0.000000 31.801025 4.168816 0.000000 30.694792 3.576453 0.000000 36.519474 -2.148677 0.000000 37.329727 -3.653934 0.000000 36.568825 -3.119170 0.000000 30.759966 3.847915 0.000000 30.906132 3.853811 0.000000 30.567982 2.335166 0.000000 32.185619 0.735838 0.000000 35.205036 -0.578201 0.000000 35.725922 -1.030809 0.000000 37.329727 -4.713051 0.000000 31.524023 4.109749 0.000000 31.047720 3.995399 0.000000 31.323786 4.109749 0.000000 30.971354 3.930177 0.000000 31.423904 4.117629 0.000000 31.284298 1.393792 0.000000 30.896511 1.849222 0.000000 32.382832 4.981663 0.000000 32.082329 4.357671 0.000000 30.471172 2.501467 0.000000 30.578516 2.666930 0.000000 31.496101 1.173481 0.000000 32.682728 0.250476 0.000000 32.265305 0.368574 0.000000 31.838575 0.708377 0.000000 31.490705 0.850327 0.000000 30.644035 2.023421 0.000000 30.488228 2.154436 0.000000 30.462109 2.757830 0.000000 30.440289 3.046561 0.000000 33.489880 -0.311767 0.000000 34.098183 -0.132625 0.000000 32.804958 -0.199102 0.000000 35.717838 -1.890697 0.000000 34.695553 -0.918845 0.000000 30.474529 3.387421 0.000000 30.343180 3.232623 0.000000 31.088367 1.584723 0.000000 30.450605 3.541397 0.000000 30.554195 3.732380 0.000000 31.567457 4.303146 0.000000 35.709221 -2.807957 0.000000 35.808990 -3.665706 0.000000 36.322956 -4.713051 0.000000 30.612137 3.973720 0.000000 30.842232 3.999887 0.000000 30.396597 2.351668 0.000000 31.875257 0.342969 0.000000 34.953049 -1.727256 0.000000 30.965485 4.123135 0.000000 31.133348 4.047873 0.000000 31.341711 4.320912 0.000000 31.226133 4.086305 0.000000 31.060555 1.325460 0.000000 31.271051 1.178539 0.000000 30.844454 1.616635 0.000000 30.573526 1.807648 0.000000 31.397800 4.981663 0.000000 30.350386 2.610973 0.000000 30.222633 2.443045 0.000000 31.256592 0.943552 0.000000 32.354599 -0.042984 0.000000 31.856520 -0.080876 0.000000 31.484623 0.486186 0.000000 30.399776 1.953997 0.000000 30.315201 2.187491 0.000000 30.265900 3.034269 0.000000 30.180870 2.816020 0.000000 32.996674 -0.682910 0.000000 33.798206 -0.821335 0.000000 32.403496 -0.525743 0.000000 34.794437 -2.451365 0.000000 34.261566 -1.579481 0.000000 30.278448 3.491039 0.000000 30.159981 3.316488 0.000000 30.241064 3.691703 0.000000 30.332087 3.978709 0.000000 34.918392 -3.451431 0.000000 35.337925 -4.713051 0.000000 30.705555 4.312341 0.000000 31.414335 0.069846 0.000000 31.053656 4.317031 0.000000 30.786131 1.356056 0.000000 31.029295 1.034062 0.000000 33.127209 -1.131477 0.000000 30.044668 3.853281 0.000000 30.494867 1.566938 0.000000 30.301569 1.731453 0.000000 30.412771 4.981663 0.000000 30.058924 2.621406 0.000000 30.062786 2.254497 0.000000 30.994356 0.708377 0.000000 31.908537 -0.538691 0.000000 31.412735 -0.393013 0.000000 30.955156 0.342969 0.000000 30.226421 2.007077 0.000000 29.965572 2.963794 0.000000 32.521965 -1.040135 0.000000 33.279854 -1.860962 0.000000 31.966803 -1.051492 0.000000 34.123318 -3.005289 0.000000 33.648491 -2.422826 0.000000 29.937408 3.418378 0.000000 29.768713 3.197356 0.000000 29.994219 4.448344 0.000000 34.013916 -4.010860 0.000000 34.352894 -4.713051 0.000000 30.911230 -0.0665
[...]
<CellData Scalars="Label">
<DataArray type="Int32" Name="Label" format="ascii">
0 0 0 0 0 0 0 0 0 0 0 0 0 0 0 0 0 0 0 0 0 0 0 0 0 0 0 0 0 0 0 0 0 0 0 0 0 0 0 0 0 0 0 0 0 0 0 0 0 0 0 0 0 0 0 0 0 0 0 0 0 0 0 0 0 0 0 0 0 0 0 0 0 0 0 0 0 0 0 0 0 0 0 0 0 0 0 0 0 0 0 0 0 0 0 0 0 0 0 0 0 0 0 0 0 0 0 0 0 0 0 0 0 0 0 0 0 0 0 0 0 0 0 0 0 0 0 0 0 0 0 0 0 0 0 0 0 0 0 0 0 0 0 0 0 0 0 0 0 0 0 0 0 0 0 0 0 0 0 0 0 0 0 0 0 0 0 0 0 0 0 0 0 0 0 0 0 0 0 0 0 0 0 0 0 0 0 0 0 0 0 0 0 0 0 0 0 0 0 0 0 0 0 0 0 0 0 0 0 0 0 0 0 0 0 0 0 0 0 0 0 0 0 0 0 0 0 0 0 0 0 0 0 0 0 0 0 0 0 0 0 0 0 0 0 0 0 0 0 0 0 0 0 0 0 0 0 0 0 0 0 0 0 0 0 0 0 0 0 0 0 0 0 0 0 0 0 0 0 0 0 0 0 0 0 0 0 0 0 0 0 0 0 0 0 0 0 0 0 0 0 0 0 0 0 0 0 0 0 0 0 0 0 0 0 0 0 0 0 0 0 0 0 0 0 0 0 0 0 0 0 0 0 0 0 0 0 0 0 0 0 0 0 0 0 0 0 0 0 0 0 0 0 0 0 0 0 0 0 0 0 0 0 0 0 0 0 0 0 0 0 0 0 0 0 0 0 0 0 0 0 0 0 0 0 0 0 0 0 0 0 0 0 0 0 0 0 0 0 0 0 0 0 0 0 0 0 0 0 0 0 0 0 0 0 0 0 0 0 0 0 0 0 0 0 0 0 0 0 0 0 0 0 0 0 0 0 0 0 0 0 0 0 0 0 0 0 0 0 0 0 0 0 0 0 0 0 0 0 0 0 0 0 0 0 0 0 0 0 0 0 0 0 0 0 0 0 0 0 0 0 0 0 0 0 0 0 0 0 0 0 0 0 0 0 0 0 0 0 0 0 0 0 0 0 0 0 0 0 0 0 0 0 0 0 0 0 0 0 0 0 0 0 0 0 0 0 0 0 0 0 0 0 0 0 0 0 0 0 0 0 0 0 0 0 0 0 0 0 0 0 0 0 0 0 0 0 0 0 0 0 0 0 0 0 0 0 0 0 0 0 0 0 0 0 0 0 0 0 0 0 0 0 0 0 0 0 0 0 0 0 0 0 0 0 0 0 0 0 0 0 0 0 0 0 0 0 0 0 0 0 0 0 0 0 0 0 0 0 0 0 0 0 0 0 0 0 0 0 0 0 0 0 0 0 0 0 0 0 0 0 0 0 0 0 0 0 0 0 0 0 0 0 0 0 0 0 0 0 0 0 0 0 0 0 0 0 0 0 0 0 0 0 0 0 0 0 0 0 0 0 0 0 0 0 0 0 0 0 0 0 0 0 0 0 0 0 0 0 0 0 0 0 0 0 0 0 0 0 0 0 0 0 0 0 0 0 0 0 0 0 0 0 0 0 0 0 0 0 0 0 0 0 0 0 0 0 0 0 0 0 0 0 0 0 0 0 0 0 0 0 0 0 0 0 0 0 0 0 0 0 0 0 0 0 0 0 0 0 0 0 0 0 0 0 0 0 0 0 0 0 0 0 0 0 0 0 0 0 0 0 0 0 0 0 0 0 0 0 0 0 0 0 0 0 0 0 0 0 0 0 0 0 0 0 0 0 0 0 0 0 0 0 0 0 0 0 0 0 0 0 0 0 0 0 0 0 0 0 0 0 0 0 0 0 0 0 0 0 0 0 0 0 0 0 0 0 0 0 0 0 0 0 0 0 0 0 0 0 0 0 0 0 0 0 0 0 0 0 0 0 0 0 0 0 0 0 0 0 0 0 0 0 0 0 0 0 0 0 0 0 0 0 0 0 0 0 0 0 0 0 0 0 0 0 0 0 0 0 0 0 0 0 0 0 0 0 0 0 0 0 0 0 0 0 0 0 0 0 0 0 0 0 0 0 0 0 0 0 0 0 0 0 0 0 0 0 0 0 0 0 0 0 0 0 0 0 0 0 0 0 0 0 0 0 0 0 0 0 0 0 0 0 0 0 0 0 0 0 0 0 0 0 0 0 0 0 0 0 0 0 0 0 0 0 0 0 0 0 0 0 0 0 0 0 0 0 0 0 0 0 0 0 0 0 0 0 0 0 0 0 0 0 0 0 0 0 0 0 0 0 0 0 0 0 0 0 0 0 0 0 0 0 0 0 0 0 0 0 0 0 0 0 0 0 0 0 0 0 0 0 0 0 0 0 0 0 0 0 0 0 0 0 0 0 0 0 0 0 0 0 0 0 0 0 0 0 0 0 0 0 0 0 0 0 0 0 0 0 0 0 0 0 0 0 0 0 0 0 0 0 0 0 0 0 0 0 0 0 0 0 0 0 0 0 0 0 0 0 0 0 0 0 0 0 0 0 0 0 0 0 0 0 0 0 0 0 0 0 0 0 0 0 0 0 0 0 0 0 0 0 0 0 0 0 0 0 0 0 0 0 0 0 0 0 0 0 0 0 0 0 0 0 0 0 0 0 0 0 0 0 0 0 0 0 0 0 0 0 0 0 0 0 0 0 0 0 0 0 0 0 0 0 0 0 0 0 0 0 0 0 0 0 0 0 0 0 0 0 0 0 0 0 0 0 0 0 0 0 0 0 0 0 0 0 0 0 0 0 0 0 0 0 0 0 0 0 0 0 0 0 0 0 0 0 0 0 0 0 0 0 0 0 0 0 0 0 0 0 0 0 0 0 0 0 0 0 0 0 0 0 0 0 0 0 0 0 0 0 0 0 0 0 0 0 0 0 0 0 0 0 0 0 0 0 0 0 0 0 0 0 0 0 0 0 0 0 0 0 0 0 0 0 0 0 0 0 0 0 0 0 0 0 0 0 0 0 0 0 0 0 0 0 0 0 0 0 0 0 0 0 0 0 0 0 0 0 0 0 0 0 0 0 0 0 0 0 0 0 0 0 0 0 0 0 0 0 0 0 0 0 0 0 0 0 0 0 0 0 0 0 0 0 0 0 0 0 0 0 0 0 0 0 0 0 0 0 0 0 0 0 0 0 0 0 0 0 0 0 0 0 0 0 0 0 0 0 0 0 0 0 0 0 0 0 0 0 0 0 0 0 0 0 0 0 0 0 0 0 0 0 0 0 0 0 0 0 0 0 0 0 0 0 0 0 0 0 0 0 0 0 0 0 0 0 0 0 0 0 0 0 0 0 0 0 0 0 0 0 0 0 0 0 0 0 0 0 0 0 0 0 0 0 0 0 0 0 0 0 0 0 0 0 0 0 0 0 0 0 0 0 0 0 0 0 0 0 0 0 0 0 0 0 0 0 0 0 0 0 0 0 0 0 0 0 0 0 0 0 0 0 0 0 0 0 0 0 0 0 0 0 0 0 0 0 0 0 0 0 0 0 0 0 0 0 0 0 0 0 0 0 0 0 0 0 0 0 0 0 0 0 0 0 0 0 0 0 0 0 0 0 0 0 0 0 0 0 0 0 0 0 0 0 0 0 0 0 0 0 0 0 0 0 0 0 0 0 0 0 0 0 0 0 0 0 0 0 0 0 0 0 0 0 0 0 0 0 0 0 0 0 0 0 0 0 0 0 0 0 0 0 0 0 0 0 0 0 0 0 0 0 0 0 0 0 0 0 0 0 0 0 0 0 0 0 0 0 0 0 0 0 0 0 0 0 0 0 0 0 0 0 0 0 0 0 0 0 0 0 0 0 0 0 0 0 0 0 0 0 0 0 0 0 0 0 0 0 0 0 0 0 0 0 0 0 0 0 0 0 0 0 0 0 0 0 0 0 0 0 0 0 0 0 0 0 0 0 0 0 0 0 0 0 0 0 0 0 0 0 0 0 0 0 0 0 0 0 0 0 0 0 0 0 0 0 0 0 0 0 0 0 0 0 0 0 0 0 0 0 0 0 0 0 0 0 0 0 0 0 0 0 0 0 0 0 0 0 0 0 0 0 0 0 0 0 0 0 0 0 0 0 0 0 0 0 0 0 0 0 0 0 0 0 0 0 0 0 0 0 0 0 0 0 0 0 0 0 0 0 0 0 0 0 0 0 0 0 0 0 0 0 0 0 0 0 0 0 0 0 0 0 0 0 0 0 0 0 0 0 0 0 0 0 0 0 0 0 0 0 0 0 0 0 0 0 0 0 0 0 0 0 0 0 0 0 0 0 0 0 0 0 0 0 0 0 0 0 0 0 0 0 0 0 0 0 0 0 0 0 0 0 0 0 0 0 0 0 0 0 0 0 0 0 0 0 0 0 0 0 0 0 0 0 0 0 0 0 0 0 0 0 0 0 0 0 0 0 0 0 0 0 0 0 0 0 0 0 0 0 0 0 0 0 0 0 0 0 0 0 0 0 0 0 0 0 0 0 0 0 0 0 0 0 0 0 0 0 0 0 0 0 0 0 0 0 0 0 0 0 0 0 0 0 0 0 0 0 0 0 0 0 0 0 0 0 0 0 0 0 0 0 0 0 0 0 0 0 0 0 0 0 0 0 0 0 0 0 0 0 0 0 0 0 0 0 0 0 0 0 0 0 0 0 0 0 0 0 0 0 0 0 0 0 0 0 0 0 0 0 0 0 0 0 0 0 0 0 0 0 0 0 0 0 0 0 0 0 0 0 0 0 0 0 0 0 0 0 0 0 0 0 0 0 0 0 0 0 0 0 0 0 0 0 0 0 0 0 0 0 0 0 0 0 0 0 0 0 0 0 0 0 0 0 0 0 0 0 0 0 0 0 0 0 0 0 0 0 0 0 0 0 0 0 0 0 0 0 0 0 0 0 0 0 0 0 0 0 0 0 0 0 0 0 0 0 0 0 0 0 0 0 0 0 0 0 0 0 0 0 0 0 0 0 0 0 0 0 0 0 0 0 0 0 0 0 0 0 0 0 0 0 0 0 0 0 0 0 0 0 0 0 0 0 0 0 0 0 0 0 0 0 0 0 0 0 0 0 0 0 0 0 0 0 0 0 0 0 0 0 0 0 0 0 0 0 0 0 0 0 0 0 0 4 4 4 4 4 4 4 4 4 4 4 4 4 4 4 4 4 4 4 4 4 4 4 4 4 4 4 4 4 4 4 4 4 4 4 4 4 4 4 4 4 4 4 4 4 4 4 4 4 4 4 4 4 4 4 4 4 4 4 4 4 4 4 4 4 4 4 4 4 4 4 4 4 4 4 4 4 4 4 4 4 4 4 4 4 4 4 4 4 4 3 3 3 3 3 3 3 3 3 3 3 3 3 3 3 3 3 3 3 3 3 3 3 3 3 3 3 3 3 3 3 3 3 3 3 3 3 3 3 3 3 3 3 3 3 3 3 3 3 3 3 3 3 3 3 3 3 3 3 3 3 3 3 3 3 3 3 3 3 3 3 3 3 3 2 2 2 2 2 2 2 2 2 1 1 1 1 1 1 1 1 1 
</DataArray>
<DataArray type="Float64" Name="u" NumberOfComponents="1" format="ascii">
1.9902697115226991e-03 7.9671179617295436e-04 9.5571381730710225e-03 2.2888862233212404e-01 1.2542472170732979e-01 2.1426143165016567e-01 1.0329729477458027e-01 1.8466650321633967e-02 2.0111016698413260e-03 1.2941674263330046e-02 1.0080355297240501e-01 2.2279640065891171e-02 1.6493962174856422e-02 1.6332453224511290e-01 6.8799478379196671e-02 7.7616329381915879e-03 3.0750819610597096e-03 4.3407379722060810e-02 2.0708866647133711e-02 4.6942244763755733e-02 1.0094509896065149e-01 3.2073833073711096e-02 2.9005131757338265e-02 2.1300935009186533e-01 5.2707376706360963e-02 7.6118748585222717e-02 5.4712270333459087e-02 2.3435701989530386e-01 5.5174270571867565e-02 5.8383134243065293e-02 2.1369317126004478e-01 1.1781097834587806e-01 7.8064998919765677e-02 1.8354628290873190e-01 1.0540775256179309e-01 6.0635131103951675e-02 8.6089132966199369e-02 2.6761907878847337e-02 1.9342333637943809e-01 2.3526286948299457e-01 1.0063372027505411e-01 7.2348173114882702e-03 6.8610321035885144e-02 7.0821693086257074e-04 2.4606340252684288e-02 3.7478062419619679e-02 3.5993886466444774e-02 2.2790080158000187e-02 2.0440243596705152e-01 1.9059744656235264e-02 1.4174358414472579e-02 8.8417168375207994e-02 2.4431802852825329e-01 1.6764117539223997e-02 6.2420276928811993e-03 5.9167548390806748e-02 3.8925461800322636e-02 7.8853368303219110e-02 1.9048979857303977e-03 1.6642411438000132e-03 1.2544166739347162e-02 2.8547839227815902e-01 5.5427674450963538e-01 4.6868935718589089e-01 5.3699995776041920e-01 5.7891740081603094e-01 1.7358832799484680e-01 2.5355916597128414e-01 1.3368645510208155e-01 1.6631911922928297e-01 6.7221642491991251e-02 8.1996121362682239e-01 7.4185823194086642e-01 6.1748416687790719e-01 6.5857711151061826e-01 1.0720583834800568e+00 8.8909376595518697e-01 7.7503757666792694e-01 8.3290662755568357e-01 8.7171115873261962e-01 9.0978418786355908e-01 7.8736573683196576e-01 2.4095523928374060e-01 3.5917010938675342e-01 4.4224020913920736e-01 6.6445472087961788e-01 3.7233214152279992e-01 5.1093958152713848e-01 4.3637253654358715e-01 9.3404706380943903e-01 7.8229891515879357e-01 7.1936452631624825e-01 5.8508279039820654e-01 6.3781504378415088e-01 4.9642105792930358e-01 6.3273648916970537e-01 5.5542303014325145e-01 3.4749861357159462e-01 8.3573286561495697e-01 8.0341862629576988e-01 9.1625369928419476e-01 8.7777939965016816e-01 7.9517189173055391e-01 3.4135085952097272e-02 3.6028025082212467e-04 6.1810143062762313e-01 4.7920472434817996e-01 6.9732116512669695e-01 6.0616502233449276e-01 6.8699850783526828e-01 7.8067028486011814e-01 5.9183706588746454e-01 7.2086730370086838e-01 6.9565581229916451e-01 3.6850188343237822e-01 5.3468059676076840e-01 3.8862236069420847e-01 3.6230270472423415e-01 3.6376828104743020e-01 5.7325672422208285e-01 7.1394963584787718e-01 4.3734311884027532e-01 7.0374931595578349e-01 3.4419561279384914e-01 1.2889076370287147e-01 1.4569556431845374e-01 2.1729350174258014e-01 2.3507810991637840e-01 4.5223075367334525e-01 2.2249613447200772e-01 3.0230912676633104e-01 3.4325350457051751e-01 3.8091526131026043e-01 4.4419867404203145e-01 4.6594401180683442e-01 4.4228934294278965e-01 5.2525067391073610e-01 5.1887728336563299e-01 5.3007977071145285e-01 6.2460818161842924e-01 6.9672792771061998e-01 2.8141925889227698e-01 2.8101116540355098e-01 2.0488029000677749e-01 1.6566464602628478e-01 1.2483841035401921e-01 3.0050157215970669e-01 3.1308450340102206e-01 2.4465603784994933e-01 4.8540383224361333e-01 6.8471707737626036e-02 7.8041831910852039e-02 3.9091864842161284e-01 2.4644077124509642e-01 4.7992747319333917e-01 5.3859109341611688e-01 4.6474359663720000e-01 3.0209254624954140e-01 1.9263335239117418e-01 1.3164723438496176e-01 2.0690982145564388e-01 2.2262424010099602e-01 5.3715703665994829e-01 1.2146707403541175e-01 2.3037927554197196e-01 9.3668645745246693e-02 6.6168022242399416e-01 3.9673465965899690e-01 4.9762026917366153e-01 3.5182419060100034e-01 3.7459060859227267e-01 3.1209092858418280e-01 7.4676853526119380e-01 4.0862114054410303e-01 3.0853127588898988e-01 5.4367284000687488e-01 4.0072655184112072e-01 5.1349897171868164e-01 6.1145837838740147e-01 2.7668157692541395e-01 4.5622398761244615e-01 3.3614029100157683e-01 1.4880707047279612e-01 1.2849309958530220e-01 1.8882538701264989e-01 1.5983176431898105e-01 5.5292076774317550e-02 1.7591596826202777e-01 1.6160007724593245e-01 1.3077233064426447e-01 1.6727459934072444e-01 3.3631814885338979e-02 2.6955550399013588e-03 1.8408152692441976e-02 1.2481711882358148e-02 4.9809386248694065e-01 4.6635423142925270e-01 3.8227837752309790e-01 4.3187020445917279e-01 1.0139221285160511e+00 1.0540273219218372e+00 1.0787655561903167e+00 4.3586526215224519e-01 8.0596102713209716e-01 9.8566074261318515e-01 9.1253637114539776e-01 8.6587008416689581e-01 5.8321957950021774e-01 8.9690813957024718e-01 6.3184275970845549e-01 9.7895498797995351e-01 1.1152176201640187e+00 1.1105047477595638e+00 1.0725267829340455e+00 8.2951975875715722e-01 9.9132008150238549e-01 1.1874528069042212e+00 1.1389658626872721e+00 1.2023394282251063e+00 9.1063599899499037e-01 9.9466687662277575e-01 9.1796275275758565e-01 9.9423723505676065e-01 8.8476997999923568e-01 8.4283830052832898e-01 9.3180815267162576e-01 7.9686131437926966e-01 6.3577512482006804e-01 1.9065172625509117e-03 1.5282273515766942e+00 7.7907069717020483e-01 1.3269552345287909e+00 5.7137489041718537e-01 7.0336760152302069e-01 7.2125006021208371e-01 7.9803907719049239e-01 5.7040984045650478e-01 4.8906634341213051e-01 6.1218460176916556e-01 7.7583558777507089e-01 7.4162004433391315e-01 7.3396489855336799e-01 6.3130939955658616e-01 8.4609474974920051e-01 1.0325626059704347e+00 9.0364664509283088e-01 8.9500353651930609e-01 9.7688880093484509e-01 9.6328853106932644e-01 1.0436169131610487e+00 9.8025326039801575e-01 1.0471221026615471e+00 9.6877654315773487e-01 1.0881046988057019e+00 1.3490360597613371e+00 1.0562126146661481e+00 1.0017572079015491e+00 8.5393514648393731e-01 9.9440276989320220e-01 8.6273345445354654e-01 1.0394598017418155e+00 1.2971762999736627e+00 1.3406534122453255e+00 1.4094580935094041e+00 1.3750896641887682e+00 1.1288443447457470e+00 1.2133305270290735e+00 1.1207401565109598e+00 1.1921350987979813e+00 1.1909236140127089e+00 1.1486477615823150e+00 1.2297700257103752e+00 9.3302718873087598e-01 1.1651381846976785e+00 1.3408457166232686e+00 1.4914494812554182e+00 1.3872699731288543e+00 1.2475221692793217e+00 1.3031425144818858e+00 1.1887698111759977e+00 1.1175620017722232e+00 1.2159723482902880e+00 1.1397735351825315e+00 1.4240833113228581e+00 9.1124001824766498e-01 1.0175726824964864e+00 9.7806700739342878e-01 1.1984866147746676e+00 1.0623203026965338e+00 1.0329186705145619e+00 1.0984866524622756e+00 1.0591046782676303e+00 1.1389823225456268e+00 9.3289339963684148e-01 9.4192099962381071e-01 9.9080858648896863e-01 1.0944504913497806e+00 1.0040257563782959e+00 1.0032709247392217e+00 1.1019080070693970e+00 3.6517085539981625e-01 2.7614530787509328e-01 2.7671042511784794e-01 2.3278838983168884e-01 2.3089966639562592e-01 2.7853480486124482e-01 2.2835383710545731e-01 1.2826283977079794e-01 1.6994307859961311e-01 1.4235679164264148e-01 4.6569116470969556e-02 1.4131433169881878e-02 3.1238377250102480e-03 3.8920345254406441e-03 1.9027485867725707e-01 9.7378623449380242e-01 1.1269792129845695e+00 1.1640826251167837e+00 1.2984912395583637e+00 1.1668280035174292e+00 1.0589287442741280e+00 1.1864540455721193e+00 1.2601382576334252e+00 1.2904037754166202e+00 1.3538731148465992e+00 8.8289104542036645e-01 9.1636321987742342e-01 6.1897580949536579e-01 6.8837260685945667e-01 6.6712440675426898e-01 7.5296828168063668e-01 6.7078886816967942e-01 5.0729466884352314e-01 4.3077998510148019e-01 5.0205843479608059e-01 3.7702655717113531e-01 6.2749648904748612e-01 7.9716905585126618e-01 5.3955019669579773e-01 6.4991727566649216e-01 5.8778985029721298e-01 7.1096991946792198e-01 5.8394342144782474e-01 4.1210093757403177e-01 3.9099872861704782e-01 3.3087105769091785e-01 4.5642635535266118e-01 7.8944791517616220e-01 1.0206667194311048e+00 1.0301149766028801e+00 7.8406649120452772e-04 1.4704811812696243e+00 4.1083813480360393e-01 1.4239288055219572e+00 1.3888355937677992e+00 1.1761459001927124e+00 1.2600735818032498e+00 1.0255642572547461e+00 1.0707481399148024e+00 1.0646293149960524e+00 1.2320431257525450e+00 1.4556851503545682e+00 8.3578643966635235e-01 8.9836616234015731e-01 8.2802128593426039e-01 1.3908892179370151e+00 1.4021060591024077e+00 1.3238764238474792e+00 1.2936639203460056e+00 1.0660956708461209e+00 1.1436516697376022e+00 1.0547435404435399e+00 3.1559848924381106e-01 3.1536494231781725e-01 4.5697059385772132e-01 3.9601402852628731e-01 4.6894541948842050e-01 6.5224164709325116e-01 3.6790136315611482e-01 5.4746311665121516e-01 5.0733597699405286e-01 5.7464278419099846e-01 6.3069989865452825e-01 6.5350721256671784e-01 5.5994602252320003e-01 5.6485551821198965e-01 6.2460625377160506e-01 7.4830773986969290e-01 4.3789404793819198e-01 5.5667967641189597e-01 4.9514821610636406e-01 5.8192560308009944e-01 8.9015959541292156e-01 7.8793090364374629e-01 6.5692409829520859e-01 6.1502033367475373e-01 7.0449947929591428e-01 7.5503138683651949e-01 8.0238812232370438e-01 4.1266546339009569e-01 3.0658017268738824e-01 3.2214975591778638e-01 3.7904329209196430e-01 1.3635048319856977e+00 1.6072648934619800e+00 1.5363608086886313e+00 1.5615628697945942e+00 1.6519446679189831e+00 1.0718477033839195e+00 1.1845597607726166e+00 1.5241554521931255e+00 1.4327620750615060e+00 1.3546120152549161e+00 3.6185264996396760e-01 3.0801301460874381e-01 5.0679931381037746e-01 3.6581759442872391e-01 4.9317424941711679e-01 3.9626128186159748e-01 3.6841194993799758e-01 2.7440952270942931e-01 5.2000332159330043e-01 1.3309577274232163e+00 1.8496034312337054e-01 1.9811581602271949e-01 2.9342066828127911e-01 1.4859308087913975e-01 2.8881935217060800e-01 7.6046383000368343e-03 4.9529711993125580e-01 6.8770292084832252e-01 6.7324470121830604e-01 6.9852267688833991e-01 2.4491253148037662e-01 2.1143058860526062e-01 2.3148825407086204e-01 2.9211439946092677e-01 2.8739775086420027e-01 3.3222302204533272e-01 2.2060325905883238e-01 5.4577752308830119e-01 4.9226595848831234e-01 4.6995412039802348e-01 3.2755231913999261e-01 3.8931032739437593e-01 5.4725546460256180e-01 6.3403401403442428e-01 8.7241113649293123e-01 7.3557315555136848e-01 7.7168034880566205e-01 1.3031675615596854e-02 3.2874908262791727e-02 1.2111871067215894e+00 1.2755000800957574e+00 1.1254269016397054e+00 9.6374350975188938e-01 9.1712468010290960e-01 8.3072770495190773e-01 3.0187432606489650e-01 5.5293881074412332e-01 3.6899674853132008e-01 5.7293203068444121e-01 4.3746357534403546e-01 5.0169798828200030e-01 4.1144021872370656e-01 6.3156558897143444e-01 6.5881803361331559e-01 7.9079469470471397e-01 7.7158144674817752e-01 5.8768126668739962e-01 7.1122211220779119e-01 6.2780469686056461e-01 4.3027237953350750e-01 5.9320115425868769e-01 4.9650171427315132e-01 5.1190238729878645e-01 5.8010642821368197e-01 6.1864510273625894e-01 6.7602881257060299e-01 5.6570083744257482e-01 5.6175254442820244e-01 4.6983085751046683e-01 4.4697553426714731e-01 3.7288317671316573e-01 1.2037861675070760e+00 1.2568782258952800e+00 1.1331434453913396e+00 1.1276657291321541e+00 8.2604768843388787e-01 8.3786384596840624e-01 7.6678004514733777e-01 6.0795858310815531e-01 7.8903546115675849e-01 7.2874348000092204e-01 7.9733046286014397e-01 7.9821079900096870e-01 9.4590012937095946e-01 5.9231184020325656e-01 1.3729392052916900e+00 1.7387635664047596e+00 1.6614086762157709e+00 1.5967237428496992e+00 1.6622186816574274e+00 1.5874973695144527e+00 1.7485153371291258e+00 1.7048524905892992e+00 1.7706310632389912e+00 1.6596719486026870e+00 1.6030365748639408e+00 1.7037000574273886e+00 1.7627566164978761e+00 1.7385382282296706e+00 1.6031621433162457e+00 1.5434518398578339e+00 1.6338259056748403e+00 1.7109742283971174e+00 1.5310682652758165e+00 1.7480407331422851e+00 1.6929854845232866e+00 1.6534807844004735e+00 1.0976278072658914e+00 8.3194515198690078e-01 6.1237445692769676e-01 4.7355032214534276e-01 4.6695493690744561e-01 1.0376202497146914e+00 1.0982840620871548e+00 8.8237866149273347e-01 7.9025471627511990e-01 4.8769349863911637e-01 1.3162174896223422e+00 1.2704364371380759e+00 1.2089545853737960e+00 1.1560517372649439e+00 1.0682900741104988e+00 1.1967851016204729e+00 1.1529350587323655e+00 1.1470574891302054e+00 1.4118767085822028e+00 1.4842546617862280e+00 1.5456738434649253e+00 1.5381658825565894e+00 9.3467190400216948e-01 9.3794555404195989e-01 1.0024893033633364e+00 1.2104502304830316e+00 1.0018137116817916e+00 1.0350107197479637e+00 9.4625400071475307e-01 7.1355006008745114e-01 9.1930413985185278e-01 7.1707953003460667e-01 9.0290516046079849e-01 9.5728959633263866e-01 8.8215323994136774e-01 9.9503413366479188e-01 9.7347816886862848e-01 1.0627907516046347e+00 1.2452354706104121e+00 8.8863975263485928e-01 1.6906733658141710e+00 2.0193449357446491e-02 1.0479108838227288e-01 1.1096974800263522e-01 1.5200255197961782e-01 1.5114401571312808e-01 3.5019268747535659e-01 3.4863106302487079e-01 4.1791266282479067e-01 9.7282870777571168e-02 1.8598416844714599e-01 3.8125460216176410e-02 1.5681615267867091e-01 1.4798343916787977e+00 1.5507873140313451e+00 1.4513664141665612e+00 1.3141895685405771e+00 1.4799591445298266e+00 7.2108577944360031e-01 2.0426150513303437e-01 5.5514607509574887e-01 3.8385141174985538e-01 2.2877848591528649e-01 1.5623824771361680e-01 5.1383308885864259e-02 3.7301248042845547e-01 5.6462957037758921e-01 4.4368392255886080e-01 7.7783523080274719e-01 7.7087575221071081e-01 6.6467921773460303e-01 5.5680272666565711e-01 2.0808319981974181e-02 3.0995528553148240e-03 7.5582381986170760e-02 1.7412434906309904e-01 7.0770111201074584e-02 9.4576795456989493e-02 4.7230442257539279e-02 5.9391948994737889e-02 1.0651084595165878e-02 3.7761884633518060e-02 8.1243627286126857e-02 1.9330710619676839e-01 9.1568095409875289e-02 1.1127570005371717e-01 1.9356885516792882e-01 2.6104187229292380e-01 1.3448446265770206e-01 4.4794455765010663e-02 2.2523924094532681e-02 2.4253318958056987e-02 8.9894180388085700e-03 4.0725917461178814e-03 1.9481323432828065e-01 1.4755490324888207e-03 2.6302032379430164e-02 5.9999732091116659e-03 6.7857379605673540e-01 5.6497121864305233e-01 4.9394670380319317e-01 4.0425090683292531e-01 2.2931537151220829e-01 2.2073108314408027e-01 2.0172117243180188e-01 1.0238774593508952e-01 1.6270255403891787e-01 9.4004872370198056e-01 7.0789830352459071e-01 7.6856583722000260e-01 7.1122584962106783e-01 8.4325066767936119e-01 6.6318719392927350e-01 5.4414249501688616e-01 5.6508090071463180e-01 4.6574202644739249e-01 6.5852123863920919e-01 8.9289997446937819e-01 4.2384437180554468e-01 1.4646900318308492e-01 2.8384252433272861e-02 6.3843145326587969e-02 1.4784924381486626e+00 1.3808462782477151e+00 1.4860817227427243e+00 1.1225772