<?xml version="1.0"?>
<VTKFile type="UnstructuredGrid"  byte_order="LittleEndian">
<UnstructuredGrid>
<Piece NumberOfPoints="993" NumberOfCells=" 1988">
<Points>
<DataArray type="Float32" NumberOfComponents="3" format="ascii">
38.897533 -1.540935 0.000000 38.897533 0.733641 0.000000 38.897533 1.870929 0.000000 38.897533 -0.403647 0.000000 38.196972 -2.316153 0.000000 38.897533 -2.677507 0.000000 38.107853 -1.286310 0.000000 38.107853 1.616304 0.000000 38.107853 0.648766 0.000000 38.107853 2.456398 0.000000 38.897533 3.007501 0.000000 38.107853 -0.318772 0.000000 38.897533 -3.781383 0.000000 38.897533 4.111377 0.000000 28.204710 1.174071 0.000000 28.153952 1.087519 0.000000 27.961939 0.856568 0.000000 28.096308 1.005392 0.000000 28.032160 0.928237 0.000000 28.268272 1.088525 0.000000 37.341442 -2.142963 0.000000 37.522232 -3.062798 0.000000 37.870075 -3.781383 0.000000 37.273045 -0.656119 0.000000 37.057697 1.147321 0.000000 37.234558 2.131227 0.000000 37.273056 0.300538 0.000000 37.522232 3.392792 0.000000 37.870075 4.111377 0.000000 28.311056 1.177366 0.000000 28.248245 1.264472 0.000000 28.208462 0.990499 0.000000 27.886108 0.790861 0.000000 28.003649 0.756352 0.000000 28.072353 0.826473 0.000000 28.135115 0.901961 0.000000 28.383505 1.076892 0.000000 28.321236 0.958993 0.000000 27.805174 0.731553 0.000000 27.719677 0.679039 0.000000 36.431652 -2.476005 0.000000 36.507786 -1.695727 0.000000 36.872849 -3.781383 0.000000 36.456814 -0.039950 0.000000 36.482300 -0.867839 0.000000 35.658741 0.562510 0.000000 36.035404 1.632648 0.000000 36.167461 2.663261 0.000000 36.597610 3.304374 0.000000 36.872849 4.111377 0.000000 28.346457 1.269398 0.000000 28.418188 1.167059 0.000000 28.284267 1.358121 0.000000 28.251308 0.868820 0.000000 27.929457 0.692065 0.000000 28.053375 0.636873 0.000000 28.181379 0.778648 0.000000 28.501001 1.048911 0.000000 28.426231 0.875934 0.000000 27.830866 0.625169 0.000000 27.630182 0.633669 0.000000 27.747383 0.573893 0.000000 28.349207 1.752493 0.000000 28.345114 1.652239 0.000000 28.332863 1.552652 0.000000 28.312536 1.454394 0.000000 27.537287 0.595745 0.000000 28.731348 0.960676 0.000000 28.639395 1.080025 0.000000 28.596609 0.912513 0.000000 35.875622 -3.781383 0.000000 35.645699 -1.638871 0.000000 35.645699 -2.637310 0.000000 35.268566 -0.129544 0.000000 35.680347 -0.844719 0.000000 34.878391 1.151592 0.000000 34.878391 2.138187 0.000000 35.518559 3.392229 0.000000 35.875622 4.111377 0.000000 28.405548 1.378660 0.000000 28.596609 1.254674 0.000000 28.348381 0.741461 0.000000 27.938704 0.552510 0.000000 28.112724 0.494275 0.000000 28.236597 0.631474 0.000000 28.523949 0.744420 0.000000 27.817410 0.478011 0.000000 27.659998 0.529593 0.000000 28.427801 1.732156 0.000000 28.345114 1.852747 0.000000 28.425117 1.619074 0.000000 28.472061 1.501648 0.000000 27.441610 0.565519 0.000000 27.546646 0.482118 0.000000 28.950533 1.103145 0.000000 28.834366 0.826967 0.000000 28.731518 1.200375 0.000000 28.675140 0.672452 0.000000 29.021585 0.891831 0.000000 28.834450 0.573192 0.000000 29.246050 0.969598 0.000000 33.881165 2.138187 0.000000 33.881165 1.151592 0.000000 34.878391 -3.781383 0.000000 34.878391 -2.794788 0.000000 34.878391 -0.821598 0.000000 34.878391 -1.808193 0.000000 34.379780 0.164997 0.000000 34.753738 3.124782 0.000000 34.878391 4.111377 0.000000 28.596609 1.425755 0.000000 28.834200 1.334518 0.000000 28.385912 0.509085 0.000000 27.973585 0.394435 0.000000 28.245771 0.387393 0.000000 28.586176 0.469977 0.000000 27.696117 0.403513 0.000000 27.821583 0.292309 0.000000 28.538736 1.700878 0.000000 28.534578 1.835357 0.000000 28.427801 1.926148 0.000000 28.332863 1.952334 0.000000 28.596609 1.596835 0.000000 27.453453 0.452676 0.000000 27.343788 0.543191 0.000000 27.582077 0.358608 0.000000 29.013874 1.392313 0.000000 29.035660 0.585602 0.000000 29.279202 0.600624 0.000000 28.767044 0.417250 0.000000 29.523678 0.895267 0.000000 29.434486 1.207398 0.000000 33.133247 2.138187 0.000000 33.881165 3.124782 0.000000 33.382553 0.164997 0.000000 32.883938 1.151592 0.000000 27.244473 0.528912 0.000000 28.312536 2.050592 0.000000 31.886711 1.151592 0.000000 30.560959 0.467519 0.000000 30.316624 0.949292 0.000000 30.094786 1.386706 0.000000 31.157467 0.775311 0.000000 29.826210 1.092783 0.000000 31.886711 0.164997 0.000000 34.005821 -2.794788 0.000000 33.881165 -3.781383 0.000000 33.881165 -0.821598 0.000000 33.631859 -1.808193 0.000000 33.881165 4.111377 0.000000 28.834118 1.588293 0.000000 28.493176 0.325265 0.000000 28.015842 0.202927 0.000000 28.268139 0.120865 0.000000 27.655006 0.216237 0.000000 27.792826 0.065949 0.000000 28.660519 1.713079 0.000000 28.534578 2.020935 0.000000 28.661612 1.881672 0.000000 28.404867 2.031177 0.000000 27.468037 0.313703 0.000000 27.358170 0.430928 0.000000 29.182518 1.676683 0.000000 29.302992 1.452304 0.000000 28.917358 0.214947 0.000000 29.312973 0.224759 0.000000 29.617922 0.565450 0.000000 28.666412 0.175405 0.000000 29.648710 1.477738 0.000000 32.136017 2.138187 0.000000 33.008591 3.124782 0.000000 32.509979 -0.821598 0.000000 27.144321 0.522775 0.000000 27.235544 0.417020 0.000000 28.381100 2.140034 0.000000 28.284267 2.146865 0.000000 31.064905 1.412814 0.000000 30.038780 0.521745 0.000000 30.304583 -0.036654 0.000000 31.189180 -0.412773 0.000000 29.892555 1.785460 0.000000 30.530075 1.927428 0.000000 31.521431 -1.077445 0.000000 28.248245 2.240514 0.000000 26.563072 0.655441 0.000000 26.475504 0.704424 0.000000 26.240683 0.891686 0.000000 26.944189 0.535038 0.000000 26.392218 0.760381 0.000000 26.845537 0.553357 0.000000 26.748707 0.579656 0.000000 26.654343 0.613759 0.000000 26.313770 0.822941 0.000000 27.044004 0.524822 0.000000 29.124233 0.049644 0.000000 32.883938 -2.794788 0.000000 32.883938 -3.781383 0.000000 32.883938 -1.808193 0.000000 32.883938 4.111377 0.000000 28.834036 1.842068 0.000000 28.475016 -0.003985 0.000000 28.066977 -0.028797 0.000000 28.309141 -0.173279 0.000000 27.589890 -0.042911 0.000000 27.486025 0.142303 0.000000 27.856930 -0.157809 0.000000 28.494545 2.176190 0.000000 28.675854 2.055816 0.000000 27.282318 0.279217 0.000000 29.151583 2.020988 0.000000 29.479645 1.916709 0.000000 28.851089 -0.018992 0.000000 29.673981 0.009850 0.000000 29.347422 -0.158650 0.000000 31.339134 2.391536 0.000000 32.011364 3.124782 0.000000 31.886711 -1.808193 0.000000 27.137995 0.411042 0.000000 27.159008 0.277290 0.000000 28.368092 2.249275 0.000000 29.984118 -0.285157 0.000000 30.348227 -0.631503 0.000000 30.604893 -1.049526 0.000000 30.036869 2.209483 0.000000 30.680851 2.600821 0.000000 30.887083 -1.509122 0.000000 28.204710 2.330915 0.000000 26.545946 0.540264 0.000000 26.438507 0.598679 0.000000 26.357185 0.653318 0.000000 26.173443 0.966160 0.000000 26.124512 0.863577 0.000000 26.190298 0.790712 0.000000 26.846966 0.440830 0.000000 26.943056 0.422987 0.000000 26.280588 0.714402 0.000000 26.726763 0.466446 0.000000 26.634848 0.499665 0.000000 27.040281 0.413036 0.000000 29.037886 -0.189089 0.000000 28.032160 2.576749 0.000000 26.112497 1.045867 0.000000 28.096308 2.499594 0.000000 26.058250 1.130277 0.000000 28.153952 2.417467 0.000000 31.886711 -2.794788 0.000000 31.886711 -3.781383 0.000000 31.886711 4.111377 0.000000 28.853363 2.220649 0.000000 28.540543 -0.358948 0.000000 28.129013 -0.309941 0.000000 27.424623 -0.087797 0.000000 27.535471 -0.328840 0.000000 27.308081 0.109260 0.000000 27.864174 -0.458082 0.000000 28.634947 2.275867 0.000000 28.491034 2.399477 0.000000 29.311508 2.197013 0.000000 29.636377 2.438516 0.000000 28.944298 -0.447840 0.000000 29.522629 -0.599662 0.000000 31.193825 3.112689 0.000000 30.877033 -2.381152 0.000000 27.035696 0.275364 0.000000 27.120590 0.103721 0.000000 28.292683 2.423730 0.000000 29.814606 -0.907769 0.000000 30.136637 -1.284602 0.000000 30.136637 2.773840 0.000000 30.530069 3.102871 0.000000 30.454487 -1.853811 0.000000 26.476696 0.424150 0.000000 26.314747 0.523619 0.000000 26.171112 0.648080 0.000000 26.068586 0.949677 0.000000 26.016855 0.836354 0.000000 26.066174 0.741274 0.000000 26.913326 0.288805 0.000000 26.790956 0.302246 0.000000 26.610838 0.359149 0.000000 28.088415 2.676800 0.000000 27.961939 2.648418 0.000000 26.000036 1.039409 0.000000 28.202269 2.527905 0.000000 25.953724 1.126321 0.000000 26.011065 1.218827 0.000000 27.886108 2.714125 0.000000 25.914762 1.503316 0.000000 25.898460 1.602320 0.000000 25.898460 1.902666 0.000000 25.890282 1.702324 0.000000 25.971252 1.310929 0.000000 25.939081 1.405969 0.000000 25.890282 1.802662 0.000000 29.151064 -0.802184 0.000000 30.889484 -3.781383 0.000000 30.437994 -2.948037 0.000000 30.889484 4.111377 0.000000 29.079741 2.504873 0.000000 28.814816 2.538452 0.000000 28.633112 -0.756051 0.000000 28.325441 -0.756739 0.000000 28.028704 -0.757403 0.000000 27.194294 -0.099993 0.000000 27.267023 -0.281506 0.000000 27.638050 -0.627650 0.000000 27.351910 -0.493361 0.000000 28.421707 2.559860 0.000000 29.378315 2.708117 0.000000 29.753025 2.973983 0.000000 29.452873 -1.129739 0.000000 30.020611 -2.292362 0.000000 26.850895 0.131326 0.000000 27.023077 -0.103486 0.000000 29.682158 -1.712340 0.000000 30.252115 3.545585 0.000000 26.339434 0.315493 0.000000 26.498842 0.223471 0.000000 26.232204 0.401005 0.000000 26.124973 0.486519 0.000000 25.996548 0.595307 0.000000 25.932230 0.933567 0.000000 25.903807 0.731138 0.000000 26.666403 0.155064 0.000000 28.177433 2.835117 0.000000 27.973581 2.835268 0.000000 28.304165 2.692312 0.000000 25.848717 1.106984 0.000000 25.914648 1.216719 0.000000 27.805174 2.773433 0.000000 25.830845 1.523080 0.000000 25.806065 1.427663 0.000000 25.818975 1.633777 0.000000 25.914762 2.001670 0.000000 25.824497 1.984775 0.000000 25.816624 1.888489 0.000000 25.804304 1.771861 0.000000 25.873999 1.322085 0.000000 28.844057 -1.127422 0.000000 26.011065 2.286159 0.000000 27.719677 2.825947 0.000000 25.939081 2.099017 0.000000 25.971252 2.194057 0.000000 26.853567 -0.079115 0.000000 25.808989 0.892821 0.000000 29.892258 -3.781383 0.000000 29.557
[...]
<CellData Scalars="Label">
<DataArray type="Int32" Name="Label" format="ascii">
0 0 0 0 0 0 0 0 0 0 0 0 0 0 0 0 0 0 0 0 0 0 0 0 0 0 0 0 0 0 0 0 0 0 0 0 0 0 0 0 0 0 0 0 0 0 0 0 0 0 0 0 0 0 0 0 0 0 0 0 0 0 0 0 0 0 0 0 0 0 0 0 0 0 0 0 0 0 0 0 0 0 0 0 0 0 0 0 0 0 0 0 0 0 0 0 0 0 0 0 0 0 0 0 0 0 0 0 0 0 0 0 0 0 0 0 0 0 0 0 0 0 0 0 0 0 0 0 0 0 0 0 0 0 0 0 0 0 0 0 0 0 0 0 0 0 0 0 0 0 0 0 0 0 0 0 0 0 0 0 0 0 0 0 0 0 0 0 0 0 0 0 0 0 0 0 0 0 0 0 0 0 0 0 0 0 0 0 0 0 0 0 0 0 0 0 0 0 0 0 0 0 0 0 0 0 0 0 0 0 0 0 0 0 0 0 0 0 0 0 0 0 0 0 0 0 0 0 0 0 0 0 0 0 0 0 0 0 0 0 0 0 0 0 0 0 0 0 0 0 0 0 0 0 0 0 0 0 0 0 0 0 0 0 0 0 0 0 0 0 0 0 0 0 0 0 0 0 0 0 0 0 0 0 0 0 0 0 0 0 0 0 0 0 0 0 0 0 0 0 0 0 0 0 0 0 0 0 0 0 0 0 0 0 0 0 0 0 0 0 0 0 0 0 0 0 0 0 0 0 0 0 0 0 0 0 0 0 0 0 0 0 0 0 0 0 0 0 0 0 0 0 0 0 0 0 0 0 0 0 0 0 0 0 0 0 0 0 0 0 0 0 0 0 0 0 0 0 0 0 0 0 0 0 0 0 0 0 0 0 0 0 0 0 0 0 0 0 0 0 0 0 0 0 0 0 0 0 0 0 0 0 0 0 0 0 0 0 0 0 0 0 0 0 0 0 0 0 0 0 0 0 0 0 0 0 0 0 0 0 0 0 0 0 0 0 0 0 0 0 0 0 0 0 0 0 0 0 0 0 0 0 0 0 0 0 0 0 0 0 0 0 0 0 0 0 0 0 0 0 0 0 0 0 0 0 0 0 0 0 0 0 0 0 0 0 0 0 0 0 0 0 0 0 0 0 0 0 0 0 0 0 0 0 0 0 0 0 0 0 0 0 0 0 0 0 0 0 0 0 0 0 0 0 0 0 0 0 0 0 0 0 0 0 0 0 0 0 0 0 0 0 0 0 0 0 0 0 0 0 0 0 0 0 0 0 0 0 0 0 0 0 0 0 0 0 0 0 0 0 0 0 0 0 0 0 0 0 0 0 0 0 0 0 0 0 0 0 0 0 0 0 0 0 0 0 0 0 0 0 0 0 0 0 0 0 0 0 0 0 0 0 0 0 0 0 0 0 0 0 0 0 0 0 0 0 0 0 0 0 0 0 0 0 0 0 0 0 0 0 0 0 0 0 0 0 0 0 0 0 0 0 0 0 0 0 0 0 0 0 0 0 0 0 0 0 0 0 0 0 0 0 0 0 0 0 0 0 0 0 0 0 0 0 0 0 0 0 0 0 0 0 0 0 0 0 0 0 0 0 0 0 0 0 0 0 0 0 0 0 0 0 0 0 0 0 0 0 0 0 0 0 0 0 0 0 0 0 0 0 0 0 0 0 0 0 0 0 0 0 0 0 0 0 0 0 0 0 0 0 0 0 0 0 0 0 0 0 0 0 0 0 0 0 0 0 0 0 0 0 0 0 0 0 0 0 0 0 0 0 0 0 0 0 0 0 0 0 0 0 0 0 0 0 0 0 0 0 0 0 0 0 0 0 0 0 0 0 0 0 0 0 0 0 0 0 0 0 0 0 0 0 0 0 0 0 0 0 0 0 0 0 0 0 0 0 0 0 0 0 0 0 0 0 0 0 0 0 0 0 0 0 0 0 0 0 0 0 0 0 0 0 0 0 0 0 0 0 0 0 0 0 0 0 0 0 0 0 0 0 0 0 0 0 0 0 0 0 0 0 0 0 0 0 0 0 0 0 0 0 0 0 0 0 0 0 0 0 0 0 0 0 0 0 0 0 0 0 0 0 0 0 0 0 0 0 0 0 0 0 0 0 0 0 0 0 0 0 0 0 0 0 0 0 0 0 0 0 0 0 0 0 0 0 0 0 0 0 0 0 0 0 0 0 0 0 0 0 0 0 0 0 0 0 0 0 0 0 0 0 0 0 0 0 0 0 0 0 0 0 0 0 0 0 0 0 0 0 0 0 0 0 0 0 0 0 0 0 0 0 0 0 0 0 0 0 0 0 0 0 0 0 0 0 0 0 0 0 0 0 0 0 0 0 0 0 0 0 0 0 0 0 0 0 0 0 0 0 0 0 0 0 0 0 0 0 0 0 0 0 0 0 0 0 0 0 0 0 0 0 0 0 0 0 0 0 0 0 0 0 0 0 0 0 0 0 0 0 0 0 0 0 0 0 0 0 0 0 0 0 0 0 0 0 0 0 0 0 0 0 0 0 0 0 0 0 0 0 0 0 0 0 0 0 0 0 0 0 0 0 0 0 0 0 0 0 0 0 0 0 0 0 0 0 0 0 0 0 0 0 0 0 0 0 0 0 0 0 0 0 0 0 0 0 0 0 0 0 0 0 0 0 0 0 0 0 0 0 0 0 0 0 0 0 0 0 0 0 0 0 0 0 0 0 0 0 0 0 0 0 0 0 0 0 0 0 0 0 0 0 0 0 0 0 0 0 0 0 0 0 0 0 0 0 0 0 0 0 0 0 0 0 0 0 0 0 0 0 0 0 0 0 0 0 0 0 0 0 0 0 0 0 0 0 0 0 0 0 0 0 0 0 0 0 0 0 0 0 0 0 0 0 0 0 0 0 0 0 0 0 0 0 0 0 0 0 0 0 0 0 0 0 0 0 0 0 0 0 0 0 0 0 0 0 0 0 0 0 0 0 0 0 0 0 0 0 0 0 0 0 0 0 0 0 0 0 0 0 0 0 0 0 0 0 0 0 0 0 0 0 0 0 0 0 0 0 0 0 0 0 0 0 0 0 0 0 0 0 0 0 0 0 0 0 0 0 0 0 0 0 0 0 0 0 0 0 0 0 0 0 0 0 0 0 0 0 0 0 0 0 0 0 0 0 0 0 0 0 0 0 0 0 0 0 0 0 0 0 0 0 0 0 0 0 0 0 0 0 0 0 0 0 0 0 0 0 0 0 0 0 0 0 0 0 0 0 0 0 0 0 0 0 0 0 0 0 0 0 0 0 0 0 0 0 0 0 0 0 0 0 0 0 0 0 0 0 0 0 0 0 0 0 0 0 0 0 0 0 0 0 0 0 0 0 0 0 0 0 0 0 0 0 0 0 0 0 0 0 0 0 0 0 0 0 0 0 0 0 0 0 0 0 0 0 0 0 0 0 0 0 0 0 0 0 0 0 0 0 0 0 0 0 0 0 0 0 0 0 0 0 0 0 0 0 0 0 0 0 0 0 0 0 0 0 0 0 0 0 0 0 0 0 0 0 0 0 0 0 0 0 0 0 0 0 0 0 0 0 0 0 0 0 0 0 0 0 0 0 0 0 0 0 0 0 0 0 0 0 0 0 0 0 0 0 0 0 0 0 0 0 0 0 0 0 0 0 0 0 0 0 0 0 0 0 0 0 0 0 0 0 0 0 0 0 0 0 0 0 0 0 0 0 0 0 0 0 0 0 0 0 0 0 0 0 0 0 0 0 0 0 0 0 0 0 0 0 0 0 0 0 0 0 0 0 0 0 0 0 0 0 0 0 0 0 0 0 0 0 0 0 0 0 0 0 0 0 0 0 0 0 0 0 0 0 0 0 0 0 0 0 0 0 0 0 0 0 0 0 0 0 0 0 0 0 0 0 0 0 0 0 0 0 0 0 0 0 0 0 0 0 0 0 0 0 0 0 0 0 0 0 0 0 0 0 0 0 0 0 0 0 0 0 0 0 0 0 0 0 4 4 4 4 4 4 4 4 4 4 4 4 4 4 4 4 4 4 4 4 4 4 4 4 4 4 4 4 4 4 4 4 4 4 4 4 4 4 4 4 4 4 4 4 4 4 4 4 4 4 4 4 4 4 4 4 4 4 4 4 4 4 4 4 4 4 4 4 4 4 4 4 4 4 4 4 4 4 4 4 4 4 4 4 4 4 4 4 4 4 4 4 4 4 4 4 4 4 4 4 4 4 4 4 4 4 4 4 4 4 4 4 4 4 4 4 4 4 4 4 3 3 3 3 3 3 3 3 3 3 3 3 3 3 3 3 3 3 3 3 3 3 3 3 3 3 3 3 3 3 3 3 3 3 3 3 3 3 3 3 3 3 3 3 3 3 3 3 3 3 3 3 3 3 3 3 3 3 3 3 3 3 3 3 3 3 3 3 3 3 3 3 3 3 3 3 2 2 2 2 2 2 2 1 1 1 1 1 1 1 
</DataArray>
<DataArray type="Float64" Name="u" NumberOfComponents="1" format="ascii">
1.6952456510645111e-03 2.0559983604204975e-02 8.4694815259068051e-03 3.0549883856416424e-02 5.8250914210034868e-04 1.0292853651513573e-02 3.1217969830593887e-03 7.9649566247011940e-03 1.7123962186142112e-02 3.4841473064249640e-01 3.3222421876292291e-01 7.7272199974956779e-01 5.4408700059300585e-01 3.3001032266251384e-01 3.1089182738958498e-01 1.3305567123729234e-01 2.4389135039746981e-01 2.6877671020403709e-01 6.2067799022772832e-03 7.0345365029571605e-01 1.2960396865438508e-02 3.4599141487952623e-01 1.2631581167543901e-01 1.0446608095251572e-01 8.5957457558499345e-02 2.3260027129202658e-02 2.7626704930898510e-02 4.4542337837723600e-01 7.9396123915872896e-01 2.1509624484437934e-01 1.7680434809608292e-01 2.7796230022103663e-01 5.0801258394297522e-01 4.4680358116747237e-01 1.1664048209802376e+00 1.2865466841141648e+00 1.3387701246752848e+00 1.6229793371613557e+00 1.3616145831716455e+00 2.8173083557829393e-01 2.0900920358166325e-01 1.4317098965296388e-01 1.5412082155599793e-01 3.4190714710620063e-01 3.5687762240771204e-01 9.1420588160224736e-01 5.0748048467299245e-01 4.1261814032249017e-01 5.3734857955480786e-01 6.5594357450879293e-01 2.3601152790632487e-01 1.7419716618379738e-01 1.0853185210742208e-01 1.4779844176202506e-01 6.4748392346344358e-02 5.5241504213780865e-02 5.7261186146110321e-01 7.1804853608216557e-01 4.6005818014309796e-01 1.7029323559710552e-01 1.2162744514244712e-02 2.0449179177287044e-04 9.1204870868445646e-03 2.2656445456232269e-04 4.5657711673881787e-02 5.6822630249775949e-02 1.2735215292376512e-01 1.1896121715241148e-01 2.9315359169786379e-02 3.5730587977519388e-03 2.6782279488737258e-02 5.8905648295876405e-02 8.4378558603684706e-02 2.1988578409031373e-02 1.1554970728366349e+00 1.1692260037832110e+00 1.1105836640205420e+00 1.1544613282859495e+00 1.1223666363242721e+00 1.1829324694573056e+00 1.1329777322398198e+00 1.1085694427026413e+00 1.1957075389439815e+00 1.2294628272374779e+00 1.0723285485040579e+00 9.4590749775886596e-01 1.1641653702268377e+00 1.1776501297799635e+00 1.1273777462558592e+00 1.0573394287825588e+00 1.2122691687011766e+00 1.2051955961276759e+00 8.9239979182129670e-01 9.2949500857898093e-01 1.0231410405858909e+00 1.0283720427476779e+00 1.0113996382007722e+00 1.5122673114442406e+00 1.2201824052203332e+00 1.1465281177868778e+00 1.2502096772981210e+00 1.0437692745508378e+00 8.4613328846148239e-01 8.1746872595311082e-01 8.7445350434132096e-01 8.4194056639151804e-01 8.9769504219858742e-01 8.3850469616257084e-01 8.1518407627883249e-01 7.3169576923610080e-01 7.4288224237870226e-01 7.7785039271506240e-01 8.9152215476148977e-01 8.3263234981768575e-01 7.7480240943185286e-01 8.1401253446035604e-01 7.9643584582630078e-01 8.4764071765871685e-01 8.0687133920974285e-01 7.6084539130257234e-01 9.1072220830161832e-01 9.5788730520882093e-01 8.7934407841947393e-01 8.4101059300287384e-01 7.7214407072390046e-01 6.9840273053961632e-01 6.8174378634791921e-01 8.7501505735744001e-01 8.1850705295709880e-01 7.5161289058684377e-01 7.4026388783144315e-01 6.3932896193650923e-01 9.2683269955241432e-01 8.7940837575487274e-01 9.7270943381758790e-01 7.1803984305963853e-01 1.2502972265632208e+00 1.1714320517077264e+00 1.1700824966663490e+00 1.0808035210541411e+00 1.0480996457264244e+00 1.1381709097789310e+00 1.1021616220174384e+00 1.0643515956995224e+00 9.9561930277920152e-01 1.0526696570162555e+00 9.8931595298527564e-01 1.0466773326483774e+00 9.6200855687631570e-01 9.6550571916019612e-01 1.0391588545327222e+00 9.0483438553473894e-01 1.2157667878579377e+00 1.0808546163550599e+00 1.0990697855921239e+00 1.1311456750785105e+00 1.1206840412481129e+00 1.0679807225445348e+00 9.9998740188980539e-01 9.5474867014876996e-01 1.2640797797523144e+00 1.2367977072114704e+00 1.2068693168991995e+00 6.1778155150561875e-01 6.8850161292446099e-01 6.8631119287864928e-01 6.6758157748211944e-01 6.2541623240567579e-01 4.2187883322120689e-01 3.4513312846775179e-01 4.2229155195125562e-01 8.2098361742473780e-01 2.8139628164712122e-01 5.4599713117713877e-01 5.1924758895501433e-01 3.7972560707722836e-01 3.5554626970257130e-01 1.2837739684033913e+00 1.3182966924404109e+00 1.2873122178025085e+00 5.0072689219976563e-01 7.9854811097963796e-01 5.9008333593873519e-01 1.3521544642054739e+00 1.2838534427901629e+00 1.1605630839361498e+00 1.3608397563265890e+00 1.4487630685980224e+00 1.3622404989144137e+00 1.4555149241923431e+00 3.3290620725628095e-01 1.5243036805850414e+00 9.6352762809902925e-01 1.0938859110828134e+00 9.9422480874479002e-01 4.9466044937221038e-02 2.0265128405800309e-01 6.8242530575292198e-02 1.8933655692409623e-02 4.2040122322739223e-02 1.4760670515582769e-02 7.4438762465769892e-03 3.0621728758728057e-02 9.7170059772219472e-02 5.0379996134088716e-02 1.5713446367797881e+00 1.3991686161662513e+00 1.5990087882939470e+00 6.1110257893596920e-02 2.8828681810128520e-01 2.1777093326427327e-01 1.2268461825012092e-01 1.4677342381061204e-01 3.7348386453366245e-01 4.4330074919299528e-01 3.3169980972884949e-01 4.9511912703993133e-01 3.7286000082278925e-01 1.7706427848308795e-02 4.0492842340701780e-02 2.2260462905297644e-02 6.5396886273783095e-02 7.4562192231500679e-02 1.3387020927544771e-01 8.9644796542162203e-03 1.1434581003560004e-01 1.4162401657993501e-01 1.0092860826911169e-01 3.0609742247845984e-01 3.0493889229447285e-01 2.4164419976048990e-01 1.9554974423477078e-01 1.5036395315248119e-01 6.3200165716211384e-02 1.1481021336940427e-01 1.6697398291987373e+00 9.0922876701479649e-01 9.3866899144365457e-01 4.1419342612997556e-01 4.5510617016730914e-01 3.8069707492542071e-01 4.6062355470675964e-01 5.5547602630878679e-01 3.4406033705762187e-02 2.6605037021113426e-01 2.2763456399686932e-01 1.4055719820244472e-01 2.7684174938973760e-01 1.9327116056467051e+00 1.7331500953920367e+00 1.6918172582615720e+00 1.3187575480937643e+00 1.7625396239118247e+00 1.8008460133206596e+00 1.8677464214978707e+00 1.7001998261559903e+00 1.1215547768499574e+00 1.5597812966573912e+00 1.4498117941374249e+00 1.3856199691431448e+00 1.4561592451642704e+00 1.2300197961585460e+00 1.5900944432356794e+00 1.2569841118233223e+00 1.4007948563423280e+00 1.3032628746464363e+00 1.0062013215283030e+00 1.3568663600663524e+00 1.4388477744771477e+00 1.3738771416133160e+00 1.1112723944609271e+00 1.5265342355809652e+00 8.1378960430388214e-01 5.7329883628024447e-01 6.1476465788284718e-01 6.5532358709199268e-01 6.9232926727225230e-01 8.3191775394944689e-01 8.7515828225179104e-01 9.2828175465249663e-01 1.2293198899213942e+00 9.4197801526192049e-01 4.4025284938615766e-01 1.2393793745516137e+00 1.1001076950964781e+00 1.0957016702324018e+00 1.7289151777035845e+00 1.7470220794321467e-01 1.9266043983591211e-01 7.4181190967738245e-02 2.0256332998184301e-01 4.9027816437724459e-01 4.8788865203401943e-01 3.6490169711805875e-01 2.4865163915313976e-01 3.4644047753689433e-01 2.7959415595683867e-01 1.7112863660774241e-01 2.0578131661927987e-01 1.2068134229432205e-01 5.8007343198023698e-01 2.5579432612787473e-01 3.1015596219183850e-01 7.7431383755941074e-01 8.0263980193320772e-01 8.8367793904264458e-01 5.4567410905159974e-01 3.8326066110378365e-01 7.2238387936989223e-01 4.4120891820888353e-01 5.1354807152872284e-01 3.5336234313439285e-01 4.1485903794616413e-01 4.9326302032601904e-01 6.1718489963266643e-01 6.8458393705915876e-01 6.0197212118693288e-01 2.8215302195192526e-01 2.6239962367936803e-01 3.0729509873164262e-01 1.9926993511978491e-01 1.9975013972102174e-01 2.7454168302402959e-01 2.0463466852528789e-01 1.7774231284765940e-01 8.7640760881399868e-02 2.0267405134934977e+00 2.1108356447673686e+00 1.9785352316051175e+00 1.0507290477215447e+00 1.1963676557415934e+00 1.3343652143603939e+00 1.2976691378520830e+00 1.4486505451069323e+00 1.6487567478372727e+00 1.6833364891093525e+00 2.1903982316019177e+00 1.9146412471921592e+00 1.7892362460085280e+00 1.8632124909863153e+00 2.0679336652211679e+00 1.9747783486660031e+00 1.7132778534615567e+00 1.9696826857299743e+00 1.7006508951349553e+00 1.9515766868527422e+00 1.1341750121220966e+00 9.6312868636500149e-01 1.3471440975665172e+00 5.7089013520143039e-01 4.6251107430716765e-01 4.6375999135880464e-01 4.1499144430266782e-02 1.9879114626930616e-01 4.8612921765963532e-02 1.1252467920876993e-01 1.4626634734561299e+00 8.3824555268769740e-01 1.0774295017797824e+00 6.3273755552403266e-01 3.9014553012712982e-01 6.8948905409010663e-01 6.4886834808600702e-01 8.9329231257876596e-01 7.1084245414814751e-01 4.8212498685634564e-01 3.6052239212978865e-01 9.7503558127077428e-01 8.1365541460602608e-01 1.0448942041751039e+00 9.2941107702883019e-01 1.0118023225109729e+00 1.0690053928301178e+00 7.9007729198436338e-01 8.3895459982933107e-01 7.3444020315233782e-01 8.8350509591390580e-01 1.2496898422710241e-01 1.3752369784974428e-01 1.0324615359912874e+00 9.3006113420495928e-01 9.3157092026279176e-01 5.5269137159151704e-01 6.7604442049195823e-01 5.3314206498684258e-01 4.8387018405158561e-01 3.0968246498955465e-01 2.3716571977027218e-01 4.3573893621869630e-01 2.6542231264477151e-01 2.2343608909189838e-01 4.0774666013474758e-01 2.3428697363225454e-01 9.9843043717430982e-02 5.4469232553234596e-02 1.5007729633907568e-01 1.1753109987405557e+00 1.3017620716675888e+00 1.3170767140098922e+00 1.1085057953557953e+00 1.4058582360727803e+00 1.5673012558982271e+00 1.3107749598443386e+00 1.3944981685021578e+00 1.2663408700249517e+00 5.8926362191018677e-01 5.8555829250181768e-01 6.7597929159225734e-01 3.4427521070900347e-01 6.1468498121243512e-02 3.9655049975560874e-01 1.5823483327855389e-01 3.2273967492731259e-01 2.0931514212818172e+00 1.8686204936999671e+00 1.7960490533069193e+00 1.6862303984171696e+00 1.1644442344659898e+00 1.4932986753357897e+00 1.7262818264815505e+00 1.5817236308765863e+00 1.3487211330854416e+00 1.5360225114230583e+00 1.5152040802841706e+00 1.3809854451690833e+00 1.4923273421533692e+00 1.5631782658908944e+00 4.6836001679217631e-01 7.9504672138598265e-01 5.0733379914991084e-01 3.4520975012872457e-01 2.8958979518626243e-01 2.6784755875613481e-01 3.7841545321719200e-01 6.7653882072133437e-02 7.5006053722385377e-02 8.1820263875027699e-01 8.6840313469718433e-01 5.7060055363416640e-01 3.1126422070934046e-01 3.2669511112297722e-01 4.0656065529599061e-01 1.6376493013186791e-01 6.9036826219718650e-01 6.9892393589265689e-01 8.1806889603833255e-01 1.0556809434036971e+00 1.0343800456162837e+00 8.9583908418056568e-01 1.0660227326383274e+00 1.5304875393657271e+00 1.0482493457748756e+00 9.2667081023128750e-01 1.3671006348300914e+00 1.1094700898265728e+00 1.1293456445579046e+00 1.2692593421593679e+00 5.6970351738752800e-01 8.3419220932258703e-02 3.7264669308555282e-01 8.0028541413254772e-02 8.3762011239720935e-02 6.4406623488595582e-01 1.6149593511599994e-01 3.2355465682402113e-01 2.1948120531114763e+00 2.2156317601517816e+00 1.6963453187738438e+00 1.7240480439065566e+00 1.6596934977585018e+00 1.8776679466783370e+00 1.8984366099307439e+00 1.9087394860250748e+00 2.0271389362986638e+00 2.0418737724657143e+00 1.7723012934071369e+00 2.1386979798009422e+00 1.8000959136604924e+00 1.9329219807271394e+00 2.1306976620513316e+00 2.0131885575182134e+00 1.5609370252313239e+00 8.4903494767069820e-02 2.1920688250407032e+00 1.6228562301300977e+00 2.2645475330975402e+00 2.1658554402491546e+00 2.0974118969176354e+00 2.1234362632586836e+00 2.2507017624703813e+00 1.6454998146837083e-01 1.5436407423922122e-01 1.6324856021185963e-01 3.8000164101926354e-01 6.4593131115604230e-01 8.3428003878249807e-02 7.9753609798785707e-02 7.4508553355182763e-02 1.0382485905621031e+00 8.1147865005563136e-01 8.7356965688272292e-01 3.9599939446134302e-01 1.5861322767016464e-01 3.1156822008523138e-01 7.8670837941561467e-01 6.3018800203939995e-01 7.6129494428138988e-01 5.3176983147261314e-01 2.6743034142738353e-01 2.9333879506689781e-01 1.4917655460899465e-01 4.2716768357576673e-01 7.9806572351175664e-01 3.4755077388474898e-01 6.7970121783590506e-02 6.0861470787929459e-02 2.2758691389441812e+00 1.1112855392376444e-01 2.5175388044361091e-01 9.7249956323209819e-02 2.2463034650867342e+00 1.0099195533562113e+00 1.4681346846153456e+00 1.0064539391334795e+00 1.8227615275317635e+00 1.8490694893840520e+00 2.0176262317543481e+00 2.1268325060103992e+00 2.0118646891834540e+00 6.7216443470992437e-01 4.8941156341234315e-01 5.9262822205009447e-01 1.3797848673618851e-01 4.2262724250301681e-01 8.4449257771416139e-02 6.4748939502640046e-01 7.4114086284214897e-01 8.3494621932623647e-01 7.0440308410973473e-01 5.2657568602540872e-01 6.2547766331001542e-01 4.6254125979518013e-01 1.9998140793895153e-01 1.8457023090113994e-01 2.2010736582302309e-01 2.9651944831172672e-01 1.2437930924723473e-01 5.3736293578817568e-02 4.6185131638968042e-02 4.3823389413686342e-01 2.9952219753544135e-01 2.8798153804742238e-01 3.4231192775503672e-01 1.6996298854828884e-01 1.4671799621697873e-01 1.1434857052382941e-01 2.0448032551731582e-01 1.6492190285423239e-01 2.4800805924160069e-01 4.0533687158208390e-02 1.3123913046306387e-01 7.2319428668626937e-02 1.7739717679452918e+00 1.8586386477860075e+00 1.8013133598740096e+00 1.5731319351463198e+00 1.7354292288675117e+00 1.3847635297379475e+00 1.4995947301709727e+00 1.5421317639016046e+00 1.8362807353207553e+00 1.0595073363836043e+00 1.2968196405012427e+00 1.3439942767040363e+00 1.9636900280656793e+00 1.4810963047327741e+00 1.7947875515825378e+00 1.6467854175056909e+00 1.9396425778162405e+00 1.7336957839514273e+00 1.1087461739610909e+00 1.4489747518048688e+00 1.3777261153215283e+00 1.5905980812808975e+00 1.2792927140505805e+00 1.8299016307567639e+00 1.7398442717616613e+00 1.6328115463151296e+00 1.6464282653320523e+00 1.8472650411006017e+00 2.0766499584999751e+00 8.0203231308718287e-02 5.9925653268691148e-01 9.6688673354445331e-01 1.0817841835028792e+00 1.2162799063103980e+00 1.0944897677578060e+00 1.0996133066058951e+00 1.2419018972937095e+00 1.0901914610422105e+00 1.4975410595799019e+00 8.0449111001603391e-01 7.5616858796296960e-01 6.0126719288566421e-01 6.5354986616442856e-01 4.0517835885138598e-01 5.7136268675021773e-01 3.2440499236580944e-01 3.1615597822642727e-01 9.0194355730628062e-01 5.3800402284119531e-01 8.8642411236154661e-01 5.5623271612272496e-01 5.6037071614628231e-01 4.0247725408968493e-01 9.6718691556701253e-01 1.6064738673452070e+00 1.2398942850941834e+00 1.3488945841366609e+00 1.2279987970722095e+00 1.1231806128357147e+00 1.2390312049110803e+00 3.3406552471824037e-02 2.1628020719878513e+00 2.6439006459167538e-02 5.4530156694674004e-01 2.4474552208463386e-02 1.5300044972031506e-02 1.9568900070196800e+00 2.0484098124407046e-02 2.3239020430371543e-01 1.7970362159971687e-01 6.5791693762829576e-02 5.8307765466420844e-02 6.8737780696611378e-02 3.5635770693595366e-02 1.0851110971919434e-02 2.3218587584579500e-01 2.9100985725498590e-01 4.4531170559095251e-02 1.3652881516241594e-01 5.6780612503925215e-02 1.8772313922837722e-02 6.9729205798280194e-03 1.7770635578265130e+00 1.1918609099856141e-03 2.0733700681589270e-03 1.4764025209281488e-02 7.4485178304364985e-01 3.0119949615777186e-01 1.3249892640657843e+00 1.5239677959294045e+00 1.2531586866388591e+00 1.2452994829647492e+00 1.0698615138298677e+00 5.3184079440947807e-01 3.5484909485280819e-01 4.5689756215197580e-01 3.5914260161817824e-01 9.4079499120273830e-02 1.0028117465292458e-01 2.1951674665795862e-01 4.4785160895693399e-02 1.5364995903884707e-01 3.7870584982936362e-01 5.0824642448368795e-01 6.5453074510904918e-01 6.7786541869803685e-01 8.7160378376961167e-01 4.5938374050505637e-01 6.3409720729218089e-01 4.9257244705203929e-01 3.4923468548225658e-02 1.5551155025148977e-02 4.7465301961408912e-02 3.0454702105442578e-02 1.4590107917102380e-01 1.9353066415402870e-01 1.3436224476678896e-01 7.4975329906796888e-03 8.5883392736631214e-01 1.0989598912063747e+00 1.2448094951317916e+00 1.3579980740550102e+00 1.2827793969500099e+00 1.4725332752541309e+00 1.2448817232489262e+00 1.1374279895721999e+00 8.7157735224701138e-01 1.0591652