<?xml version="1.0"?>
<VTKFile type="UnstructuredGrid"  byte_order="LittleEndian">
<UnstructuredGrid>
<Piece NumberOfPoints="1527" NumberOfCells=" 3056">
<Points>
<DataArray type="Float32" NumberOfComponents="3" format="ascii">
9.852547 1.159263 0.000000 5.105293 4.107263 0.000000 0.269076 -3.940291 0.000000 36.831074 -3.940291 0.000000 0.269076 5.834527 0.000000 36.831074 5.834527 0.000000 9.849286 1.224579 0.000000 9.839540 1.289246 0.000000 9.823402 1.352621 0.000000 9.801035 1.414075 0.000000 9.772660 1.472996 0.000000 9.738560 1.528799 0.000000 9.699073 1.580929 0.000000 9.654591 1.628869 0.000000 9.605557 1.672141 0.000000 9.552459 1.710316 0.000000 9.495823 1.743015 0.000000 9.436213 1.769912 0.000000 9.374221 1.790740 0.000000 9.310463 1.805293 0.000000 9.245573 1.813424 0.000000 9.180197 1.815055 0.000000 9.114982 1.810168 0.000000 9.050578 1.798812 0.000000 8.987625 1.781099 0.000000 8.926748 1.757207 0.000000 8.868553 1.727372 0.000000 8.813618 1.691891 0.000000 8.762487 1.651116 0.000000 8.715672 1.605453 0.000000 8.673635 1.555356 0.000000 8.636796 1.501322 0.000000 8.605519 1.443889 0.000000 8.580116 1.383627 0.000000 8.560841 1.321135 0.000000 8.547882 1.257034 0.000000 8.541370 1.191962 0.000000 8.541370 1.126565 0.000000 8.547882 1.061492 0.000000 8.560841 0.997391 0.000000 8.580116 0.934900 0.000000 8.605519 0.874637 0.000000 8.636796 0.817204 0.000000 8.673635 0.763170 0.000000 8.715672 0.713073 0.000000 8.762487 0.667410 0.000000 8.813618 0.626635 0.000000 8.868553 0.591154 0.000000 8.926748 0.561319 0.000000 8.987625 0.537427 0.000000 9.050578 0.519715 0.000000 9.114982 0.508359 0.000000 9.180197 0.503471 0.000000 9.245573 0.505102 0.000000 9.310463 0.513234 0.000000 9.374221 0.527786 0.000000 9.436213 0.548614 0.000000 9.495823 0.575511 0.000000 9.552459 0.608210 0.000000 9.605557 0.646385 0.000000 9.654591 0.689658 0.000000 9.699073 0.737597 0.000000 9.738560 0.789728 0.000000 9.772660 0.845531 0.000000 9.801035 0.904452 0.000000 9.823402 0.965905 0.000000 9.839540 1.029280 0.000000 9.849286 1.093947 0.000000 5.099450 4.224336 0.000000 5.081980 4.340245 0.000000 5.053055 4.453839 0.000000 5.012964 4.563989 0.000000 4.962105 4.669600 0.000000 4.900982 4.769621 0.000000 4.830205 4.863060 0.000000 4.750476 4.948987 0.000000 4.662588 5.026550 0.000000 4.567413 5.094975 0.000000 4.465899 5.153585 0.000000 4.359054 5.201796 0.000000 4.247939 5.239128 0.000000 4.133659 5.265212 0.000000 4.017350 5.279787 0.000000 3.900167 5.282710 0.000000 3.783276 5.273950 0.000000 3.667838 5.253595 0.000000 3.555001 5.221847 0.000000 3.445885 5.179022 0.000000 3.341575 5.125546 0.000000 3.243108 5.061949 0.000000 3.151463 4.988864 0.000000 3.067550 4.907018 0.000000 2.992203 4.817224 0.000000 2.926171 4.720373 0.000000 2.870111 4.617428 0.000000 2.824579 4.509414 0.000000 2.790028 4.397403 0.000000 2.766802 4.282508 0.000000 2.755131 4.165872 0.000000 2.755131 4.048654 0.000000 2.766802 3.932017 0.000000 2.790028 3.817122 0.000000 2.824579 3.705111 0.000000 2.870111 3.597097 0.000000 2.926171 3.494153 0.000000 2.992203 3.397302 0.000000 3.067550 3.307508 0.000000 3.151463 3.225661 0.000000 3.243108 3.152576 0.000000 3.341575 3.088979 0.000000 3.445885 3.035503 0.000000 3.555001 2.992678 0.000000 3.667838 2.960931 0.000000 3.783276 2.940576 0.000000 3.900167 2.931816 0.000000 4.017350 2.934738 0.000000 4.133659 2.949314 0.000000 4.247939 2.975398 0.000000 4.359054 3.012730 0.000000 4.465899 3.060941 0.000000 4.567413 3.119550 0.000000 4.662588 3.187976 0.000000 4.750476 3.265538 0.000000 4.830205 3.351465 0.000000 4.900982 3.444904 0.000000 4.962105 3.544926 0.000000 5.012964 3.650537 0.000000 5.053055 3.760686 0.000000 5.081980 3.874280 0.000000 5.099450 3.990190 0.000000 1.257238 -3.940291 0.000000 2.245400 -3.940291 0.000000 3.233562 -3.940291 0.000000 4.221724 -3.940291 0.000000 5.209886 -3.940291 0.000000 6.198048 -3.940291 0.000000 7.186211 -3.940291 0.000000 8.174373 -3.940291 0.000000 9.162535 -3.940291 0.000000 10.150697 -3.940291 0.000000 11.138859 -3.940291 0.000000 12.127021 -3.940291 0.000000 13.115183 -3.940291 0.000000 14.103345 -3.940291 0.000000 15.091507 -3.940291 0.000000 16.079670 -3.940291 0.000000 17.067831 -3.940291 0.000000 18.055994 -3.940291 0.000000 19.044155 -3.940291 0.000000 20.032318 -3.940291 0.000000 21.020479 -3.940291 0.000000 22.008642 -3.940291 0.000000 22.996803 -3.940291 0.000000 23.984966 -3.940291 0.000000 24.973127 -3.940291 0.000000 25.961290 -3.940291 0.000000 26.949451 -3.940291 0.000000 27.937614 -3.940291 0.000000 28.925776 -3.940291 0.000000 29.913939 -3.940291 0.000000 30.902100 -3.940291 0.000000 31.890263 -3.940291 0.000000 32.878426 -3.940291 0.000000 33.866589 -3.940291 0.000000 34.854748 -3.940291 0.000000 35.842911 -3.940291 0.000000 0.269076 4.857046 0.000000 0.269076 3.879564 0.000000 0.269076 2.902082 0.000000 0.269076 1.924600 0.000000 0.269076 0.947118 0.000000 0.269076 -0.030364 0.000000 0.269076 -1.007846 0.000000 0.269076 -1.985327 0.000000 0.269076 -2.962809 0.000000 36.831074 -2.962809 0.000000 36.831074 -1.985327 0.000000 36.831074 -1.007846 0.000000 36.831074 -0.030364 0.000000 36.831074 0.947118 0.000000 36.831074 1.924600 0.000000 36.831074 2.902082 0.000000 36.831074 3.879564 0.000000 36.831074 4.857046 0.000000 35.842911 5.834527 0.000000 34.854748 5.834527 0.000000 33.866589 5.834527 0.000000 32.878426 5.834527 0.000000 31.890263 5.834527 0.000000 30.902100 5.834527 0.000000 29.913939 5.834527 0.000000 28.925776 5.834527 0.000000 27.937614 5.834527 0.000000 26.949451 5.834527 0.000000 25.961290 5.834527 0.000000 24.973127 5.834527 0.000000 23.984966 5.834527 0.000000 22.996803 5.834527 0.000000 22.008642 5.834527 0.000000 21.020479 5.834527 0.000000 20.032318 5.834527 0.000000 19.044155 5.834527 0.000000 18.055994 5.834527 0.000000 17.067831 5.834527 0.000000 16.079670 5.834527 0.000000 15.091507 5.834527 0.000000 14.103345 5.834527 0.000000 13.115183 5.834527 0.000000 12.127021 5.834527 0.000000 11.138859 5.834527 0.000000 10.150697 5.834527 0.000000 9.162535 5.834527 0.000000 8.174373 5.834527 0.000000 7.186211 5.834527 0.000000 6.198048 5.834527 0.000000 5.209886 5.834527 0.000000 4.221724 5.834527 0.000000 3.233562 5.834527 0.000000 2.245400 5.834527 0.000000 1.257238 5.834527 0.000000 14.597426 -3.084518 0.000000 13.600871 5.001837 0.000000 4.713947 -3.111803 0.000000 31.433832 -3.116145 0.000000 18.516243 4.964193 0.000000 24.610289 4.888774 0.000000 21.514561 -3.084518 0.000000 27.284634 5.098280 0.000000 30.328894 4.869183 0.000000 25.467186 -3.084522 0.000000 28.431595 -3.084442 0.000000 17.561478 -3.026708 0.000000 21.392529 4.988766 0.000000 35.996552 1.374220 0.000000 11.615476 -3.209520 0.000000 1.074137 0.520807 0.000000 11.681423 4.916907 0.000000 7.680292 -3.084518 0.000000 9.753802 -3.310488 0.000000 2.697325 3.722197 0.000000 2.674012 3.969837 0.000000 2.649355 4.241013 0.000000 2.677599 4.465344 0.000000 7.784399 5.042899 0.000000 2.813685 4.734730 0.000000 33.394142 5.061976 0.000000 9.624806 5.030512 0.000000 2.861706 4.894500 0.000000 3.060732 5.158030 0.000000 5.174948 4.445158 0.000000 5.084689 4.664238 0.000000 4.940673 4.911893 0.000000 4.773703 5.063882 0.000000 4.602554 5.250053 0.000000 15.547468 5.003133 0.000000 19.580994 -3.070232 0.000000 23.491371 -3.083654 0.000000 33.387375 -3.120379 0.000000 35.984550 -0.519105 0.000000 2.663100 -2.958571 0.000000 1.043099 2.364064 0.000000 2.952112 3.287153 0.000000 2.817378 3.502753 0.000000 36.011482 3.414961 0.000000 0.977231 -1.606372 0.000000 1.115600 4.368305 0.000000 3.832590 5.459167 0.000000 35.309990 -3.107589 0.000000 35.279175 4.898412 0.000000 4.303879 5.379746 0.000000 0.942606 3.349528 0.000000 1.779122 2.939623 0.000000 3.583925 5.335441 0.000000 3.347418 5.242619 0.000000 1.077880 1.370527 0.000000 1.763535 0.902639 0.000000 1.804675 0.189019 0.000000 2.366582 0.609409 0.000000 3.350657 2.953788 0.000000 3.128691 3.105811 0.000000 2.349766 1.201381 0.000000 2.912616 1.011265 0.000000 3.707473 2.848244 0.000000 2.918242 0.386372 0.000000 3.391076 0.717862 0.000000 3.449316 0.161168 0.000000 3.862855 0.507037 0.000000 3.827689 1.055149 0.000000 4.282246 0.866014 0.000000 4.214140 2.859724 0.000000 4.323773 0.356504 0.000000 4.684379 0.647040 0.000000 4.753767 0.213078 0.000000 5.067905 0.511505 0.000000 5.005231 0.898493 0.000000 5.348971 0.783014 0.000000 5.279882 1.124917 0.000000 5.598764 1.014165 0.000000 5.675957 0.692493 0.000000 5.902448 0.922437 0.000000 5.982147 0.626466 0.000000 5.829566 1.213250 0.000000 4.771228 3.151490 0.000000 6.104321 1.131511 0.000000 5.132454 3.667790 0.000000 6.047769 1.392007 0.000000 6.289623 1.319250 0.000000 6.234138 1.558088 0.000000 6.460173 1.492330 0.000000 6.391811 1.714718 0.000000 6.537046 1.296419 0.000000 6.628588 1.692193 0.000000 6.182874 1.788244 0.000000 6.353873 1.940304 0.000000 6.137012 2.013356 0.000000 6.324945 2.165184 0.000000 6.089389 2.243854 0.000000 6.268142 2.404185 0.000000 6.519197 2.322190 0.000000 6.037322 2.474852 0.000000 5.872274 2.319119 0.000000 4.968487 1.241230 0.000000 5.821367 2.536835 0.000000 5.977275 2.687158 0.000000 5.203760 4.043666 0.000000 5.661823 2.391865 0.000000 4.564684 3.001354 0.000000 4.946515 3.336890 0.000000 5.616148 2.593295 0.000000 5.469899 2.454826 0.000000 5.167244 0.081818 0.000000 5.421990 2.647221 0.000000 5.278442 2.515027 0.000000 6.450369 2.575736 0.000000 6.708183 2.492126 0.000000 6.648986 2.761638 0.000000 6.910026 2.672016 0.000000 6.962602 2.405980 0.000000 7.163940 2.574128 0.000000 7.206898 2.321162 0.000000 7.397930 2.472140 0.000000 7.437603 2.244796 0.000000 8.572176 1.500165 0.000000 7.611116 2.379056 0.000000 7.646968 2.173954 0.000000 7.809790 2.293226 0.000000 8.699534 1.668829 0.000000 7.831444 2.092995 0.000000 7.688237 1.983839 0.000000 8.516359 1.369075 0.000000 7.781430 2.514000 0.000000 7.988585 2.419652 0.000000 7.855437 1.918456 0.000000 7.730762 1.812386 0.000000 7.881316 1.757894 0.000000 7.766291 1.656975 0.000000 8.001428
[...]
<CellData Scalars="Label">
<DataArray type="Int32" Name="Label" format="ascii">
1 1 1 1 1 1 1 1 1 1 1 1 1 1 1 1 1 1 1 1 1 1 1 1 1 1 1 1 1 1 1 1 1 1 1 1 1 1 1 1 1 1 1 1 1 1 1 1 1 1 1 1 1 1 1 1 1 1 1 1 1 1 1 1 1 1 1 1 1 1 1 1 1 1 1 1 1 1 1 1 1 1 1 1 1 1 1 1 1 1 1 1 1 1 1 1 1 1 1 1 1 1 1 1 1 1 1 1 1 1 1 1 1 1 1 1 1 1 1 1 1 1 1 1 1 1 1 1 1 1 1 1 1 1 1 1 1 1 1 1 1 1 1 1 1 1 1 1 1 1 1 1 1 1 1 1 1 1 1 1 1 1 1 1 1 1 1 1 1 1 1 1 1 1 1 1 1 1 1 1 1 1 1 1 1 1 1 1 1 1 1 1 1 1 1 1 1 1 1 1 1 1 1 1 1 1 1 1 1 1 1 1 1 1 1 1 1 1 1 1 1 1 1 1 1 1 1 1 1 1 1 1 1 1 1 1 1 1 1 1 1 1 1 1 1 1 1 1 1 1 1 1 1 1 1 1 1 1 1 1 1 1 1 1 1 1 1 1 1 1 1 1 1 1 1 1 1 1 1 1 1 1 1 1 1 1 1 1 1 1 1 1 1 1 1 1 1 1 1 1 1 1 1 1 1 1 1 1 1 1 1 1 1 1 1 1 1 1 1 1 1 1 1 1 1 1 1 1 1 1 1 1 1 1 1 1 1 1 1 1 1 1 1 1 1 1 1 1 1 1 1 1 1 1 1 1 1 1 1 1 1 1 1 1 1 1 1 1 1 1 1 1 1 1 1 1 1 1 1 1 1 1 1 1 1 1 1 1 1 1 1 1 1 1 1 1 1 1 1 1 1 1 1 1 1 1 1 1 1 1 1 1 1 1 1 1 1 1 1 1 1 1 1 1 1 1 1 1 1 1 1 1 1 1 1 1 1 1 1 1 1 1 1 1 1 1 1 1 1 1 1 1 1 1 1 1 1 1 1 1 1 1 1 1 1 1 1 1 1 1 1 1 1 1 1 1 1 1 1 1 1 1 1 1 1 1 1 1 1 1 1 1 1 1 1 1 1 1 1 1 1 1 1 1 1 1 1 1 1 1 1 1 1 1 1 1 1 1 1 1 1 1 1 1 1 1 1 1 1 1 1 1 1 1 1 1 1 1 1 1 1 1 1 1 1 1 1 1 1 1 1 1 1 1 1 1 1 1 1 1 1 1 1 1 1 1 1 1 1 1 1 1 1 1 1 1 1 1 1 1 1 1 1 1 1 1 1 1 1 1 1 1 1 1 1 1 1 1 1 1 1 1 1 1 1 1 1 1 1 1 1 1 1 1 1 1 1 1 1 1 1 1 1 1 1 1 1 1 1 1 1 1 1 1 1 1 1 1 1 1 1 1 1 1 1 1 1 1 1 1 1 1 1 1 1 1 1 1 1 1 1 1 1 1 1 1 1 1 1 1 1 1 1 1 1 1 1 1 1 1 1 1 1 1 1 1 1 1 1 1 1 1 1 1 1 1 1 1 1 1 1 1 1 1 1 1 1 1 1 1 1 1 1 1 1 1 1 1 1 1 1 1 1 1 1 1 1 1 1 1 1 1 1 1 1 1 1 1 1 1 1 1 1 1 1 1 1 1 1 1 1 1 1 1 1 1 1 1 1 1 1 1 1 1 1 1 1 1 1 1 1 1 1 1 1 1 1 1 1 1 1 1 1 1 1 1 1 1 1 1 1 1 1 1 1 1 1 1 1 1 1 1 1 1 1 1 1 1 1 1 1 1 1 1 1 1 1 1 1 1 1 1 1 1 1 1 1 1 1 1 1 1 1 1 1 1 1 1 1 1 1 1 1 1 1 1 1 1 1 1 1 1 1 1 1 1 1 1 1 1 1 1 1 1 1 1 1 1 1 1 1 1 1 1 1 1 1 1 1 1 1 1 1 1 1 1 1 1 1 1 1 1 1 1 1 1 1 1 1 1 1 1 1 1 1 1 1 1 1 1 1 1 1 1 1 1 1 1 1 1 1 1 1 1 1 1 1 1 1 1 1 1 1 1 1 1 1 1 1 1 1 1 1 1 1 1 1 1 1 1 1 1 1 1 1 1 1 1 1 1 1 1 1 1 1 1 1 1 1 1 1 1 1 1 1 1 1 1 1 1 1 1 1 1 1 1 1 1 1 1 1 1 1 1 1 1 1 1 1 1 1 1 1 1 1 1 1 1 1 1 1 1 1 1 1 1 1 1 1 1 1 1 1 1 1 1 1 1 1 1 1 1 1 1 1 1 1 1 1 1 1 1 1 1 1 1 1 1 1 1 1 1 1 1 1 1 1 1 1 1 1 1 1 1 1 1 1 1 1 1 1 1 1 1 1 1 1 1 1 1 1 1 1 1 1 1 1 1 1 1 1 1 1 1 1 1 1 1 1 1 1 1 1 1 1 1 1 1 1 1 1 1 1 1 1 1 1 1 1 1 1 1 1 1 1 1 1 1 1 1 1 1 1 1 1 1 1 1 1 1 1 1 1 1 1 1 1 1 1 1 1 1 1 1 1 1 1 1 1 1 1 1 1 1 1 1 1 1 1 1 1 1 1 1 1 1 1 1 1 1 1 1 1 1 1 1 1 1 1 1 1 1 1 1 1 1 1 1 1 1 1 1 1 1 1 1 1 1 1 1 1 1 1 1 1 1 1 1 1 1 1 1 1 1 1 1 1 1 1 1 1 1 1 1 1 1 1 1 1 1 1 1 1 1 1 1 1 1 1 1 1 1 1 1 1 1 1 1 1 1 1 1 1 1 1 1 1 1 1 1 1 1 1 1 1 1 1 1 1 1 1 1 1 1 1 1 1 1 1 1 1 1 1 1 1 1 1 1 1 1 1 1 1 1 1 1 1 1 1 1 1 1 1 1 1 1 1 1 1 1 1 1 1 1 1 1 1 1 1 1 1 1 1 1 1 1 1 1 1 1 1 1 1 1 1 1 1 1 1 1 1 1 1 1 1 1 1 1 1 1 1 1 1 1 1 1 1 1 1 1 1 1 1 1 1 1 1 1 1 1 1 1 1 1 1 1 1 1 1 1 1 1 1 1 1 1 1 1 1 1 1 1 1 1 1 1 1 1 1 1 1 1 1 1 1 1 1 1 1 1 1 1 1 1 1 1 1 1 1 1 1 1 1 1 1 1 1 1 1 1 1 1 1 1 1 1 1 1 1 1 1 1 1 1 1 1 1 1 1 1 1 1 1 1 1 1 1 1 1 1 1 1 1 1 1 1 1 1 1 1 1 1 1 1 1 1 1 1 1 1 1 1 1 1 1 1 1 1 1 1 1 1 1 1 1 1 1 1 1 1 1 1 1 1 1 1 1 1 1 1 1 1 1 1 1 1 1 1 1 1 1 1 1 1 1 1 1 1 1 1 1 1 1 1 1 1 1 1 1 1 1 1 1 1 1 1 1 1 1 1 1 1 1 1 1 1 1 1 1 1 1 1 1 1 1 1 1 1 1 1 1 1 1 1 1 1 1 1 1 1 1 1 1 1 1 1 1 1 1 1 1 1 1 1 1 1 1 1 1 1 1 1 1 1 1 1 1 1 1 1 1 1 1 1 1 1 1 1 1 1 1 1 1 1 1 1 1 1 1 1 1 1 1 1 1 1 1 1 1 1 1 1 1 1 1 1 1 1 1 1 1 1 1 1 1 1 1 1 1 1 1 1 1 1 1 1 1 1 1 1 1 1 1 1 1 1 1 1 1 1 1 1 1 1 1 1 1 1 1 1 1 1 1 1 1 1 1 1 1 1 1 1 1 1 1 1 1 1 1 1 1 1 1 1 1 1 1 1 1 1 1 1 1 1 1 1 1 1 1 1 1 1 1 1 1 1 1 1 1 1 1 1 1 1 1 1 1 1 1 1 1 1 1 1 1 1 1 1 1 1 1 1 1 1 1 1 1 1 1 1 1 1 1 1 1 1 1 1 1 1 1 1 1 1 1 1 1 1 1 1 1 1 1 1 1 1 1 1 1 1 1 1 1 1 1 1 1 1 1 1 1 1 1 1 1 1 1 1 1 1 1 1 1 1 1 1 1 1 1 1 1 1 1 1 1 1 1 1 1 1 1 1 1 1 1 1 1 1 1 1 1 1 1 1 1 1 1 1 1 1 1 1 1 1 1 1 1 1 1 1 1 1 1 1 1 1 1 1 1 1 1 1 1 1 1 1 1 1 1 1 1 1 1 1 1 1 1 1 1 1 1 1 1 1 1 1 1 1 1 1 1 1 1 1 1 1 1 1 1 1 1 1 1 1 1 1 1 1 1 1 1 1 1 1 1 1 1 1 1 1 1 1 1 1 1 1 1 1 1 1 1 1 1 1 1 1 1 1 1 1 1 1 1 1 1 1 1 1 1 1 1 1 1 1 1 1 1 1 1 1 1 1 1 1 1 1 1 1 1 1 1 1 1 1 1 1 1 1 1 1 1 1 1 1 1 1 1 1 1 1 1 1 1 1 1 1 1 1 1 1 1 1 1 1 1 1 1 1 1 1 1 1 1 1 1 1 1 1 1 1 1 1 1 1 1 1 1 1 1 1 1 1 1 1 1 1 1 1 1 1 1 1 1 1 1 1 1 1 1 1 1 1 1 1 1 1 1 1 1 1 1 1 1 1 1 1 1 1 1 1 1 1 1 1 1 1 1 1 1 1 1 1 1 1 1 1 1 1 1 1 1 1 1 1 1 1 1 1 1 1 1 1 1 1 1 1 1 1 1 1 1 1 1 1 1 1 1 1 1 1 1 1 1 1 1 1 1 1 1 1 1 1 1 1 1 1 1 1 1 1 1 1 1 1 1 1 1 1 1 1 1 1 1 1 1 1 1 1 1 1 1 1 1 1 1 1 1 1 1 1 1 1 1 1 1 1 1 1 1 1 1 1 1 1 1 1 1 1 1 1 1 1 1 1 1 1 1 1 1 1 1 1 1 1 1 1 1 1 1 1 1 1 1 1 1 1 1 1 1 1 1 1 1 1 1 1 1 1 1 1 1 1 1 1 1 1 1 1 1 1 1 1 1 1 1 1 1 1 1 1 1 1 1 1 1 1 1 1 1 1 1 1 1 1 1 1 1 1 1 1 1 1 1 1 1 1 1 1 1 1 1 1 1 1 1 1 1 1 1 1 1 1 1 1 1 1 1 1 1 1 1 1 1 1 1 1 1 1 1 1 1 1 1 1 1 1 1 1 1 1 1 1 1 1 1 1 1 1 1 1 1 1 1 1 1 1 1 1 1 1 1 1 1 1 1 1 1 1 1 1 1 1 1 1 1 1 1 1 1 1 1 1 1 1 1 1 1 1 1 1 1 1 1 1 1 1 1 1 1 1 1 1 1 1 1 1 1 1 1 1 1 1 1 1 1 1 1 1 1 1 1 1 1 1 1 1 1 1 1 1 1 1 1 1 1 1 1 1 1 1 1 1 1 1 1 1 1 1 1 1 1 1 1 1 1 1 1 1 1 1 1 1 1 1 1 1 1 1 1 1 1 1 1 1 1 1 1 1 1 1 1 1 1 1 1 1 1 1 1 1 1 1 1 1 1 1 1 1 1 1 1 1 1 1 1 1 1 1 1 1 1 1 1 1 1 1 1 1 1 1 1 1 1 1 1 1 1 1 1 1 1 1 1 1 1 1 1 1 1 1 1 1 1 1 1 1 1 1 1 1 1 1 1 1 1 1 1 1 1 1 1 1 1 1 1 1 1 1 1 1 1 1 1 1 1 1 1 1 1 1 1 1 1 1 1 1 1 1 1 1 1 1 1 1 1 1 1 1 1 1 1 1 1 1 1 1 1 1 1 1 1 1 1 1 1 1 1 1 1 1 1 1 1 1 1 1 1 1 1 1 1 1 1 1 1 1 1 1 1 1 1 1 1 1 1 1 1 1 1 1 1 1 1 1 1 1 1 1 1 1 1 1 1 1 1 1 1 1 1 1 1 1 1 1 1 1 1 1 1 1 1 1 1 1 1 1 1 1 1 1 1 1 1 1 1 1 1 1 1 1 1 1 1 1 1 1 1 1 1 1 1 1 1 1 1 1 1 1 1 1 1 1 1 1 1 1 1 1 1 1 1 1 1 1 1 1 1 1 1 1 1 1 1 1 1 1 1 1 1 1 1 1 1 1 1 1 1 1 1 1 1 1 1 1 1 1 1 1 1 1 1 1 1 1 1 1 1 1 1 1 1 1 1 1 1 1 1 1 1 1 1 1 1 1 1 1 1 1 1 1 1 1 1 1 1 1 1 1 1 1 1 1 1 1 1 1 1 1 1 1 1 1 1 1 1 1 5 5 5 5 5 5 5 5 5 5 5 5 5 5 5 5 5 5 5 5 5 5 5 5 5 5 5 5 5 5 5 5 5 5 5 5 5 5 5 5 5 5 5 5 5 5 5 5 5 5 5 5 5 5 5 5 5 5 5 5 5 5 5 5 5 5 5 5 5 5 5 5 5 5 5 5 5 5 5 5 5 5 5 5 5 5 5 5 5 5 5 5 5 5 5 5 5 5 5 5 5 5 5 5 5 5 5 5 5 5 5 5 5 5 5 5 5 5 5 5 5 5 5 5 5 5 4 4 4 4 4 4 4 4 4 4 4 4 4 4 4 4 4 4 4 4 4 4 4 4 4 4 4 4 4 4 4 4 4 4 4 4 4 2 2 2 2 2 2 2 2 2 2 3 3 3 3 3 3 3 3 3 3 4 4 4 4 4 4 4 4 4 4 4 4 4 4 4 4 4 4 4 4 4 4 4 4 4 4 4 4 4 4 4 4 4 4 4 4 4 
</DataArray>
<DataArray type="Float64" Name="u" NumberOfComponents="1" format="ascii">
4.0997604297728973e-01 4.7988666408382541e-01 3.3645538435153405e-01 3.0457958256449114e-01 5.0582740929349368e-01 3.9978530285278868e-01 4.6458852796402883e-01 1.7989146736714847e+00 4.8941584974089139e-02 2.3909710616573671e-02 7.3234250480218299e-01 3.7777891367798390e-02 1.8761057599623443e-01 1.2890064337668601e-02 9.7312471119126309e-01 1.8502743249824796e+00 5.1941464984128860e-01 5.9080166730059291e-01 1.0456260771090592e-01 1.6928473483735071e+00 6.3697869985455569e-01 1.5541561278333442e+00 2.4663788995066949e-01 8.9686899029323663e-01 4.4785719772022747e-01 7.5865525688513458e-01 1.1153616770128692e-02 6.6254969209836215e-02 2.0664815830105920e-01 1.0303454421871281e+00 6.5214807664230134e-01 6.9754955218505565e-01 9.2366467894284054e-01 2.4302025334986471e-01 5.0836981207827392e-01 5.9738917319495699e-01 6.2255685336184186e-01 1.0039447240964632e+00 1.0042841448188273e+00 5.4209207247606350e-01 6.1548059644637387e-02 1.9553095643108853e+00 1.0943110219235601e-01 2.9908943006078043e-01 1.1725101913643843e-02 9.9394706547623279e-01 4.6400750286902090e-02 9.9921652330416677e-01 9.3042028834430768e-01 9.7602286442108332e-01 5.6088045766887773e-01 1.0243417047538554e+00 2.3259298061384739e-01 2.7830233403817717e-01 4.4622016547035404e-01 1.1750506624658059e-02 9.9194120076489600e-01 9.9052459413842575e-01 6.9258908076042980e-01 2.5620198509273523e-01 9.9290812828659147e-01 7.1110700499092838e-01 9.2140466568545787e-01 1.8817675832136904e+00 5.4410078022052999e-01 1.8473741297566124e+00 1.2670331252714977e+00 7.6025827151581438e-01 7.1831706662900752e-01 2.8685986073712266e-01 3.8334255080042690e-01 1.2048378724452435e+00 1.9412096716957863e+00 1.0401177659852727e+00 4.7985213031117913e-01 4.2044995291871962e-01 1.4715709752061359e+00 2.6814258076475939e-01 1.0913991288819893e+00 1.8668453124055879e+00 7.5800909040838638e-01 9.6780262342784762e-01 1.5863321616867876e-02 5.6683925863590157e-01 4.1471111677530520e-01 1.0488563961945934e+00 6.0058768174847565e-02 1.3938325044849231e+00 2.5748724140046464e-01 1.9053535826512893e+00 1.5753460671910596e-01 1.0005649192886075e+00 5.9264644320013060e-01 2.9723221723974225e-01 7.2200850521577054e-01 4.7966782639023836e-01 1.1738615553801015e+00 5.6739152371461110e-01 1.9979160889533194e+00 2.3258620059532201e-01 2.9411616849029298e-01 9.5200825700092517e-01 6.3633731692941675e-02 8.8054570126099618e-01 1.5638288965486997e+00 7.3675126406063585e-01 1.2290157306268275e+00 1.1085097057161053e+00 7.6331591757462774e-03 3.1364603233231103e-01 5.1628031247297468e-01 4.5528761962764891e-01 1.0120289406589849e+00 1.2601842040356654e+00 2.4217485326950014e-01 6.1257431129792955e-02 5.8576078845936663e-01 8.1395952290792140e-01 6.5093363613885513e-02 8.8374891672597622e-01 8.7764660163577657e-01 8.7828899374481517e-02 5.7851966417651460e-02 3.4635320740007036e-01 9.3919497647747696e-01 5.5968393633169677e-01 7.0385729185616308e-01 2.3372861851889432e-01 1.5769271164098604e+00 1.3542334250129912e-01 4.9848318425882797e-02 9.5345935804501902e-02 1.0112449290732279e+00 1.0759827986585644e+00 3.3161095743432012e-01 1.3719743586088293e-01 3.7691527660129504e-01 6.0175815065868732e-01 2.1261394166350539e-01 2.9347021446391230e-01 3.2776230199065215e-01 4.0887662088752752e-01 7.5424904543241494e-02 2.2744340658104541e-02 1.0117317701569386e+00 6.3140281121564201e-01 7.6294781775696063e-01 9.0255422546901087e-01 1.0810763008979436e+00 2.8767381061770153e-01 1.2233981138251686e+00 3.6187580387249185e-01 2.9911085354562628e-01 9.8367225699616867e-01 3.6438826050126827e-01 1.1503037145515704e+00 1.3246747252425595e+00 1.6442884752135702e+00 8.5460675794337737e-01 1.0037279305751732e+00 3.0670798115389941e-01 2.9719272763337945e-01 3.6120958167209438e-01 1.8713613838851562e-01 1.0008162699197878e+00 5.8398880537029774e-01 3.5179031163147734e-01 5.2345775040850362e-01 3.6886478982766341e-02 6.1185176239819905e-01 1.6648491313131171e+00 1.7618044299724864e+00 9.8932318955879328e-01 1.0368516130207855e-01 2.3473924593997014e-01 1.0554398591683618e+00 2.6354842187941674e-01 7.3967420294595243e-01 1.0266397573475878e+00 8.8538851032605659e-01 3.3129819438037900e-01 4.2048859008243777e-01 9.8758919831428560e-01 1.3009722892259936e+00 8.3551505976959504e-03 1.1335278545654890e+00 8.3382322318018165e-01 1.3631819394596947e-01 6.2058583987643934e-01 8.7834119739707256e-02 4.9792820670951576e-01 8.2489478308590569e-01 8.8774604024231107e-01 1.0762893220947811e+00 8.1161424491579759e-01 1.2394489738265015e+00 4.3326589104971180e-01 9.8356897222671447e-01 9.9893426588489065e-01 9.6431709023748813e-01 5.9753064613637585e-01 9.0523487161946015e-01 9.1809041275085890e-01 1.0498140498253716e+00 1.9519331247140499e+00 1.4300360564456616e+00 3.5536518220578711e-02 1.6890830038266769e-01 6.7322230679327452e-02 1.0422080040075901e+00 4.1693719696495957e-01 1.5766088177244826e+00 2.3648248492154206e-01 3.8829006796003662e-01 1.7080946888171578e-01 1.4743089131739473e-01 8.3530688592579883e-01 4.4079070389867359e-01 3.8758581976500783e-01 1.6263374676010803e-01 6.7295986462971968e-01 5.3919790850039795e-01 1.1174811630957662e+00 1.0776092984538881e+00 8.4042079930992375e-01 4.7835804101097434e-01 2.0029612336217001e-01 2.3962662542814198e-01 1.8670738675568005e-01 1.0013726685791524e+00 1.3512645270974559e+00 5.9666882910755659e-01 4.3966595767344274e-01 1.2055817770170693e-01 9.5061974568437890e-01 2.0152188707992806e+00 4.1495634812620030e-01 1.2388032707596059e+00 2.3184740465048476e-01 2.2759856276531359e-01 1.4704515531912117e+00 1.6168959505261342e+00 6.4445593881802510e-01 1.6863281294626313e+00 2.4566467419566385e-01 8.1089225273335952e-01 6.4232128026379387e-01 3.8596554755524248e-01 6.4952050950473753e-02 7.6265371490402711e-01 6.9432356613792112e-01 1.5369411728372513e+00 4.9726633386747188e-01 2.1351509480626332e-01 4.4768743332405647e-01 6.2784432438268512e-01 4.5855471311732532e-01 9.4830429797854565e-01 1.1521538453682174e+00 4.7449857488588265e-01 1.4264722835378043e+00 7.2437614133045591e-01 1.6456627313475608e-02 1.0042844954891450e+00 4.0914874418889735e-01 1.9351025825511889e-01 4.5820800974833259e-01 3.7209225574622473e-01 9.8559577064448789e-02 1.7287321816525014e-01 3.4794425603309254e-01 5.0818242693045312e-01 1.9195497960472401e+00 2.4294682971909276e-01 1.0008989974330418e+00 6.6553235516333098e-01 3.1368910496994173e-01 1.2534761555392523e-01 2.0749130102988561e-01 9.4145228854565932e-01 1.2965470097972578e+00 1.3632863639156385e+00 9.3010384453976891e-01 9.7002722128728547e-01 2.5944916458993333e-01 5.2439298966905667e-01 5.2627425334890532e-01 6.6188946900808499e-01 5.8012918936796631e-01 8.5964226540644106e-01 1.9598072772901837e-01 2.1722694324012531e-01 2.9767237224072252e-01 1.2943209332120417e-01 3.2684306083623368e-02 1.0129100876349053e+00 9.9551855590259775e-01 1.4225611197692454e+00 1.1746152029907642e+00 2.8201659151145392e-01 1.0068596837840044e-01 5.5463920540931455e-01 1.1099268127724700e-01 1.3676083548717743e+00 1.0204085589684744e+00 7.9843494648757979e-02 4.3986120240620075e-01 5.8165220688468255e-01 4.2865144491724294e-01 7.4119309952803181e-01 8.7607713242437180e-01 6.5454892025316791e-02 9.9600239427361559e-01 1.0955005327781189e+00 1.1936595562907728e+00 6.1667837961034211e-01 2.7502257354781989e-01 5.5935071552264115e-01 3.9140015187262722e-01 1.0754464755347490e-01 1.2172607069579340e-01 1.0472191396717700e+00 1.0122968934714689e+00 1.4863449375650792e+00 7.4163415451303671e-01 1.2599586935792735e+00 1.6443531538150906e+00 8.7252459935246784e-01 2.8996204751387628e-01 1.0082285426616153e+00 1.1634240242266053e-01 1.4649013992567959e+00 2.7177683435374095e-01 1.2394603396696717e-01 1.0471362495356464e+00 1.0003115648471665e+00 3.7330818375474856e-01 6.7857589655263895e-02 8.7346772130959549e-01 7.1014413396558118e-01 1.6075374807538436e+00 5.1266571108757675e-01 3.0902452592905560e-01 1.0486265861914061e+00 6.5238993116284982e-01 9.0693589835304178e-02 1.3386089830922980e+00 2.4670173398155870e-01 7.4272402636174994e-01 9.9949203301577838e-01 1.9917259718987537e-01 6.7488297324883351e-01 1.2996420201064236e+00 9.5753091884536667e-01 1.4807425037519457e+00 1.6744107263612726e-01 1.5491922895387478e+00 4.5728672625242084e-01 3.4451176790854121e-01 1.1959270521006085e+00 1.1204088563874235e+00 1.9717370309087909e-01 3.0325359292847992e-01 2.0495467346785146e-01 6.0565767733060860e-01 7.9683279048830769e-01 6.5100768040926260e-01 1.4549921127175738e+00 7.4410684780823733e-01 1.0015349095824206e+00 1.9123089869675661e-02 1.3840808640650755e+00 2.4253624871976881e-01 1.2119179630627337e+00 1.9519008906648589e+00 1.2657650334620025e+00 1.9066065258007399e+00 1.9412774464479690e-01 1.0682321053403483e+00 1.1106812962001129e+00 8.9091692636355280e-01 2.9430605108120459e-02 7.8308431943340429e-01 8.3149782416913232e-01 1.0311558654401081e+00 1.4578643411358148e+00 1.8794795873295012e-01 1.3195945593685394e+00 2.4931469437127987e-01 4.9876268234546460e-02 7.7985625139969461e-01 3.6739361132753712e-01 3.3679889422595954e-01 8.9720085387863219e-02 8.6962733299964970e-02 1.3036504907812452e+00 1.1384542113924251e-01 6.9135101161990353e-01 1.5494135757890299e+00 3.4258451992473476e-01 9.2358214494093194e-01 5.0993862445380156e-01 3.5410997789217580e-01 2.0654239708144209e+00 5.2953066015750794e-01 2.7997765685837050e-01 1.3547319516600487e-01 1.1801285579075466e-01 3.1059007027293101e-01 1.2609784461100695e+00 1.2716982664716134e+00 1.5320047764284415e+00 6.7169940241836856e-01 7.6373021728754764e-01 6.2463628486821299e-01 5.5302200454748585e-01 1.4718416264567971e+00 1.5202668115457776e+00 1.2268151962306437e+00 6.9208300496129649e-01 1.1197400005798452e+00 6.0067813858495023e-01 8.4559523697149641e-02 4.5730496973098805e-02 1.1363333699389226e+00 4.5786519691531594e-02 1.3650718945765004e+00 1.2893995968773420e+00 3.9288332757454947e-01 6.2014269701539657e-02 2.3378211258583064e-02 5.0392115003435645e-01 1.8495822739826413e+00 2.7565937889417769e-01 1.1310610067746061e+00 7.1465976555484012e-01 6.5747405999696129e-01 7.7889283161656753e-01 7.2378171112765743e-01 1.4036684500550323e+00 1.4422480439948098e+00 1.3574722533658487e-01 2.0007821603885785e+00 5.2712003018250209e-01 6.5026054704785152e-01 6.9223511296531937e-01 2.4608832494629596e-01 2.5186999900327639e-01 7.1012951989112516e-01 3.0130441311473810e-01 1.7425858727676130e-01 1.0712295178757176e+00 1.0018061717602944e+00 1.1436675429798315e-01 1.5358910513850357e+00 5.1684741854137795e-02 4.8836678527630373e-01 5.1035575425242641e-01 1.0183504046445839e+00 6.9204304161874064e-01 1.1088302337495670e-01 9.9231535979662422e-01 7.6338724858800466e-01 4.9287584127438616e-01 6.8085010642549859e-01 9.0778847514842520e-01 1.5792141876210377e+00 2.2338768153549754e-01 5.8034312580724479e-01 1.8224970643449129e-01 5.2592289135609027e-01 1.9085187456729341e-01 1.3788016901913251e+00 1.4369019724162062e+00 1.4515117810855513e+00 6.0270104030655258e-01 7.8321270730113968e-01 9.9780657633046288e-01 1.0391905326107787e+00 9.6134360551526432e-01 9.8412843042616183e-01 7.6962938254722069e-01 5.1174995954439154e-02 1.2750424179038138e+00 1.3644012783439476e+00 1.9979196519374792e-01 5.9272517329177676e-01 5.6348912371420223e-01 1.0296472045658156e+00 9.9531040531153803e-01 5.7432306420734824e-01 1.6178661304276098e+00 4.1566388410031663e-01 1.8962387890679735e+00 1.3329689831048397e+00 7.5673213652473537e-01 4.4547475026615102e-02 1.2465225845700401e+00 9.9131444436091520e-01 8.5299477873879370e-01 1.0406182868863381e+00 2.6539672039670581e-01 1.1998717779285837e+00 4.4405451028270093e-01 9.2658628998699177e-01 4.7979383789404373e-01 7.3693172728168155e-01 6.7715425225563664e-01 6.3015799998720412e-01 2.4888562276813644e-01 1.1455736590577764e-01 1.3882479075533927e+00 1.7564015428367510e+00 7.3050769529602122e-01 8.2357732199843081e-01 3.1475879293669962e-01 3.8254603945791876e-01 1.0102956232614000e+00 9.1028301490587427e-01 5.3773189312701120e-01 1.8324044683190582e-01 3.9709554613436426e-01 2.0774576374595379e+00 1.1880429354169051e+00 3.2264789184971820e-01 1.0414029440331380e+00 1.0128730642048840e+00 9.8215027713507197e-01 2.8164011086622681e-01 1.3626418980199631e-01 1.1702320493250888e+00 2.0507665206511398e+00 5.6349367960261321e-01 4.2590413667382082e-01 9.3099532886927938e-01 1.8439531938578060e+00 1.3544285423390516e+00 4.4625467971096672e-01 3.8045363353244621e-01 4.5528297584384769e-01 2.8995624500460858e-02 3.4808611376293830e-01 1.6133464089486588e-01 1.6701142483151216e-01 1.0424096060467030e+00 1.1026471213497930e+00 9.0757257917808642e-01 3.8505472580803907e-01 1.0376664289526960e+00 1.6681918968726521e+00 4.9349770897048129e-01 9.1592817125387738e-01 9.5270956652207706e-01 1.2884835155276635e+00 3.3321635247267239e-01 3.6706907961572277e-02 1.0212974211215151e+00 9.6098620409189012e-02 5.3469183315592594e-01 3.1131769969590428e-01 7.3656746457946135e-02 5.0348603444416140e-01 9.6142792791715681e-01 1.7441441115247511e+00 9.5339932549990913e-01 2.7115131237377443e-01 7.4900852369874893e-01 1.1291420111634478e+00 1.1801740304096282e+00 5.4798388244965102e-01 1.0144807757623409e+00 7.4826169208747839e-01 8.5630311012875948e-01 5.3798689461305815e-01 1.3168674094154620e-01 8.2896641223605338e-01 7.1582357545600628e-01 1.0738449875678677e+00 2.0114928701922512e+00 3.9954015443447333e-01 7.7011199897091864e-01 6.2679683076307702e-01 1.7711217721861745e+00 1.8376817009472257e-01 5.5115694338177479e-01 5.0867704425475346e-01 4.4425135702942997e-01 1.0024612497339878e+00 2.7067185633834046e-01 5.1940083837307138e-01 3.4286677765233725e-02 9.1298721222988943e-01 6.2567036081899863e-01 1.9624829118081348e+00 5.6328658703787116e-01 5.2409719295154922e-01 1.5335938040