<?xml version="1.0"?>
<VTKFile type="UnstructuredGrid"  byte_order="LittleEndian">
<UnstructuredGrid>
<Piece NumberOfPoints="1009" NumberOfCells=" 2020">
<Points>
<DataArray type="Float32" NumberOfComponents="3" format="ascii">
38.184196 -1.269546 0.000000 38.082863 -1.275237 0.000000 38.285530 -1.275237 0.000000 38.385590 -1.292237 0.000000 38.483116 -1.320334 0.000000 37.982803 -1.292237 0.000000 37.885281 -1.320334 0.000000 37.791512 -1.359174 0.000000 37.702682 -1.408268 0.000000 38.148014 -1.184200 0.000000 38.054359 -1.104063 0.000000 38.308311 -1.090428 0.000000 38.576881 -1.359174 0.000000 38.665710 -1.408268 0.000000 38.505127 -0.929089 0.000000 38.480167 -1.197453 0.000000 38.748486 -1.466999 0.000000 38.824162 -1.534628 0.000000 37.864059 -1.209512 0.000000 37.839069 -1.079010 0.000000 37.772167 -1.247575 0.000000 37.667725 -1.303749 0.000000 37.586491 -1.361390 0.000000 37.619911 -1.466999 0.000000 37.929470 -1.012806 0.000000 38.183197 -0.939267 0.000000 38.505127 -0.685196 0.000000 39.038456 -1.875675 0.000000 38.932453 -0.828311 0.000000 38.738987 -1.293773 0.000000 38.711048 -1.070750 0.000000 38.999615 -1.781908 0.000000 38.954491 -1.446702 0.000000 38.950523 -1.693079 0.000000 38.891792 -1.610305 0.000000 39.083553 -2.073260 0.000000 39.066551 -1.973201 0.000000 39.089245 -2.174593 0.000000 37.712280 -1.134925 0.000000 37.809624 -0.925234 0.000000 37.694580 -0.982655 0.000000 37.627022 -1.182045 0.000000 37.547573 -1.238415 0.000000 37.474941 -1.303326 0.000000 37.496956 -1.434906 0.000000 37.544231 -1.534628 0.000000 37.417873 -1.693079 0.000000 37.476604 -1.610305 0.000000 37.368778 -1.781908 0.000000 37.329937 -1.875675 0.000000 37.301842 -1.973201 0.000000 38.031822 -0.801626 0.000000 37.774948 -0.744137 0.000000 38.219254 -0.628001 0.000000 39.243259 -0.432692 0.000000 38.583908 -0.426716 0.000000 39.231094 -1.872936 0.000000 39.839005 -0.849970 0.000000 39.140656 -1.182271 0.000000 39.064625 -1.584804 0.000000 39.083553 -2.275926 0.000000 39.269661 -2.099924 0.000000 39.066551 -2.375985 0.000000 37.284840 -2.073260 0.000000 37.279148 -2.174593 0.000000 37.579536 -1.040076 0.000000 37.604748 -0.830583 0.000000 37.431454 -1.158170 0.000000 37.315994 -1.258340 0.000000 37.314461 -1.690253 0.000000 37.377342 -1.392781 0.000000 37.430500 -1.509272 0.000000 37.362808 -1.602781 0.000000 37.272327 -1.809086 0.000000 37.228016 -1.934057 0.000000 37.172619 -1.709524 0.000000 37.963757 -0.576883 0.000000 37.734123 -0.530940 0.000000 37.537308 -0.639710 0.000000 38.208332 -0.275232 0.000000 39.839005 0.164354 0.000000 38.985271 -0.014275 0.000000 38.444038 0.129956 0.000000 38.999615 -2.567278 0.000000 39.038456 -2.473511 0.000000 39.839005 -1.864294 0.000000 39.265362 -2.420970 0.000000 38.891792 -2.738881 0.000000 38.950523 -2.656107 0.000000 38.824162 -2.814558 0.000000 37.199383 -2.101888 0.000000 37.284840 -2.275926 0.000000 37.301842 -2.375985 0.000000 37.199387 -2.217617 0.000000 37.115166 -1.970541 0.000000 37.449406 -0.928191 0.000000 37.321918 -0.792535 0.000000 37.245190 -1.103172 0.000000 37.173012 -1.220145 0.000000 37.229244 -1.383756 0.000000 37.252766 -1.586140 0.000000 37.300259 -1.500209 0.000000 37.103058 -1.333516 0.000000 37.041019 -1.659942 0.000000 37.080135 -1.851897 0.000000 37.867947 -0.137943 0.000000 37.609886 -0.311393 0.000000 37.126461 -0.653385 0.000000 37.316143 -0.507068 0.000000 37.973038 0.255471 0.000000 39.296356 0.484574 0.000000 39.839005 1.178678 0.000000 39.839005 2.193002 0.000000 38.581123 0.599238 0.000000 39.201626 -2.642205 0.000000 39.839005 -2.878613 0.000000 38.665710 -2.940918 0.000000 38.748486 -2.882187 0.000000 38.953823 -2.906242 0.000000 38.576881 -2.990012 0.000000 37.417873 -2.656107 0.000000 37.368778 -2.567278 0.000000 37.329937 -2.473511 0.000000 37.085632 -2.139997 0.000000 37.208229 -2.360400 0.000000 36.973274 -2.016412 0.000000 36.944984 -2.184264 0.000000 37.163521 -0.924199 0.000000 37.056950 -1.101222 0.000000 37.072720 -1.493140 0.000000 36.963100 -1.375144 0.000000 36.874840 -1.704066 0.000000 36.798428 -1.898522 0.000000 37.558163 -0.012995 0.000000 37.019451 -0.787568 0.000000 37.367268 -0.158457 0.000000 36.960419 -0.479109 0.000000 37.173214 -0.296146 0.000000 37.929688 0.629138 0.000000 37.562592 0.364849 0.000000 39.839005 4.219245 0.000000 39.839005 3.207321 0.000000 39.085388 2.699563 0.000000 38.400074 1.440803 0.000000 39.085388 1.938820 0.000000 37.879421 1.062447 0.000000 39.839005 -3.890537 0.000000 39.272942 -3.261094 0.000000 38.706020 -3.170280 0.000000 38.385590 -3.056949 0.000000 38.483116 -3.028852 0.000000 38.082863 -3.073949 0.000000 38.184196 -3.079640 0.000000 38.285530 -3.073949 0.000000 37.619911 -2.882187 0.000000 37.544231 -2.814558 0.000000 37.476604 -2.738881 0.000000 37.885281 -3.028852 0.000000 37.982803 -3.056949 0.000000 37.702682 -2.940918 0.000000 37.791512 -2.990012 0.000000 37.321434 -2.682385 0.000000 37.231182 -2.566223 0.000000 37.095982 -2.484167 0.000000 36.906796 -2.351588 0.000000 37.239735 -2.803376 0.000000 36.768414 -2.137879 0.000000 36.910110 -1.007923 0.000000 36.836823 -1.239220 0.000000 36.757790 -1.488655 0.000000 36.672516 -1.757786 0.000000 36.538719 -2.075966 0.000000 37.316071 0.186303 0.000000 36.793571 -0.811268 0.000000 37.079918 0.015271 0.000000 36.700489 -0.516685 0.000000 36.790108 -0.266323 0.000000 37.136391 0.494975 0.000000 37.484032 0.775120 0.000000 37.391460 1.258573 0.000000 38.832596 4.219245 0.000000 38.498714 3.543831 0.000000 38.331772 2.698961 0.000000 38.049427 1.867190 0.000000 37.241928 1.811356 0.000000 38.832596 -3.890537 0.000000 38.417664 -3.271180 0.000000 38.098309 -3.275481 0.000000 37.517281 -3.012300 0.000000 37.392467 -2.887480 0.000000 37.733086 -3.170263 0.000000 37.075123 -2.712728 0.000000 36.702076 -2.435891 0.000000 36.899166 -2.582151 0.000000 37.102833 -2.993189 0.000000 36.481102 -2.361899 0.000000 36.708088 -1.045530 0.000000 36.615459 -1.299383 0.000000 36.515263 -1.573968 0.000000 36.406422 -1.872244 0.000000 36.288521 -2.195359 0.000000 36.908932 0.300666 0.000000 36.537010 -0.814547 0.000000 36.387943 -0.590234 0.000000 36.689957 0.113600 0.000000 36.547817 -0.266323 0.000000 36.844822 0.800042 0.000000 36.735779 1.326925 0.000000 37.828568 4.219245 0.000000 37.720074 3.411367 0.000000 37.124855 2.486734 0.000000 36.626652 1.937671 0.000000 37.828568 -3.890537 0.000000 37.297169 -3.291347 0.000000 36.399773 -2.724873 0.000000 36.809479 -2.879390 0.000000 36.894547 -3.281979 0.000000 36.160801 -2.545373 0.000000 36.372677 -1.217318 0.000000 36.230328 -1.565557 0.000000 35.839127 -2.062331 0.000000 36.522774 0.479972 0.000000 36.213306 -0.818684 0.000000 36.219234 -0.336360 0.000000 36.146122 0.281272 0.000000 36.374718 0.017531 0.000000 36.368172 0.946136 0.000000 36.107128 1.390848 0.000000 37.002605 3.289309 0.000000 36.824539 4.219245 0.000000 36.325172 2.534652 0.000000 35.826908 1.922790 0.000000 36.824539 -3.890537 0.000000 36.022335 -2.960279 0.000000 36.426376 -3.271085 0.000000 35.757511 -2.602292 0.000000 35.518513 -2.265447 0.000000 36.030815 -1.218089 0.000000 35.697044 -1.706763 0.000000 35.925777 0.653097 0.000000 35.740845 0.260968 0.000000 35.804482 -0.823909 0.000000 35.954361 -0.124690 0.000000 35.412945 1.594688 0.000000 35.701084 1.122182 0.000000 36.131153 3.340047 0.000000 35.820511 4.219245 0.000000 35.085350 2.131890 0.000000 35.537189 2.581256 0.000000 35.820511 -3.890537 0.000000 35.505043 -3.359346 0.000000 35.250839 -2.673803 0.000000 35.287994 -0.830510 0.000000 35.250839 -1.888188 0.000000 35.544197 -1.324255 0.000000 35.478962 0.699823 0.000000 35.234829 0.235616 0.000000 35.412903 -0.307884 0.000000 34.966625 1.195820 0.000000 34.509258 2.159004 0.000000 35.211170 3.354300 0.000000 34.816483 4.219245 0.000000 34.701874 2.718386 0.000000 34.816483 -3.890537 0.000000 34.613720 -2.763725 0.000000 34.448387 -2.095897 0.000000 34.633545 -0.674352 0.000000 34.613720 -1.428053 0.000000 34.578728 0.552973 0.000000 34.606136 -0.060690 0.000000 33.918358 0.849143 0.000000 34.219948 1.517684 0.000000 33.812454 4.219245 0.000000 33.812454 2.191799 0.000000 33.812454 3.205522 0.000000 32.808426 4.219245 0.000000 33.812454 -3.890537 0.000000 33.812454 -2.876814 0.000000 33.561447 -1.863091 0.000000 33.812454 -0.849369 0.000000 33.812454 0.164354 0.000000 33.184937 1.178077 0.000000 32.808426 3.205522 0.000000 33.059433 2.191799 0.000000 32.431915 1.684938 0.000000 31.804398 4.219245 0.000000 32.808426 -3.890537 0.000000 32.808426 -2.876814 0.000000 32.808426 -1.863091 0.000000 32.808426 -0.849369 0.000000 32.306412 0.164354 0.000000 31.804398 3.205522 0.000000 31.804398 1.178077 0.000000 31.804398 2.191799 0.000000 30.800369 4.219245 0.000000 30.800369 3.205522 0.000000 31.804398 -3.890537 0.000000 31.804398 -1.863091 0.000000 31.678894 -2.876814 0.000000 31.804398 -0.849369 0.000000 31.302383 0.164354 0.000000 30.172852 2.698661 0.000000 30.800369 1.178077 0.000000 31.051376 2.191799 0.000000 29.796341 4.219245 0.000000 29.670837 3.205522 0.000000 30.800369 -3.890537 0.000000 30.674866 -2.876814 0.000000 30.298355 0.164354 0.000000 30.800369 -1.863091 0.000000 30.800369 -0.849369 0.000000 29.545334 2.191799 0.000000 29.796341 1.178077 0.000000 28.792313 2.191799 0.000000 28.792313 4.219245 0.000000 28.792313 3.205522 0.000000 29.796341 -3.890537 0.000000 29.796341 -2.876814 0.000000 29.796341 -1.863091 0.000000 29.294327 0.164354 0.000000 29.796341 -0.849369 0.000000 28.792313 1.178077 0.000000 28.039291 2.191799 0.000000 27.788284 4.219245 0.000000 27.788284 3.205522 0.000000 28.792313 -3.890537 0.000000 28.917816 -2.876814 0.000000 28.290298 0.164354 0.000000 28.792313 -1.863091 0.000000 28.227547 -2.369953 0.000000 28.415802 -0.849369 0.000000 26.784256 4.219245 0.000000 27.788284 1.178077 0.000000 26.784256 2.191799 0.000000 26.909760 3.205522 0.000000 27.788284 -3.890537 0.000000 27.662781 -2.876814 0.000000 27.600029 -0.849369 0.000000 27.286270 0.164354 0.000000 27.537277 -1.863091 0.000000 25.780228 4
[...]
<CellData Scalars="Label">
<DataArray type="Int32" Name="Label" format="ascii">
0 0 0 0 0 0 0 0 0 0 0 0 0 0 0 0 0 0 0 0 0 0 0 0 0 0 0 0 0 0 0 0 0 0 0 0 0 0 0 0 0 0 0 0 0 0 0 0 0 0 0 0 0 0 0 0 0 0 0 0 0 0 0 0 0 0 0 0 0 0 0 0 0 0 0 0 0 0 0 0 0 0 0 0 0 0 0 0 0 0 0 0 0 0 0 0 0 0 0 0 0 0 0 0 0 0 0 0 0 0 0 0 0 0 0 0 0 0 0 0 0 0 0 0 0 0 0 0 0 0 0 0 0 0 0 0 0 0 0 0 0 0 0 0 0 0 0 0 0 0 0 0 0 0 0 0 0 0 0 0 0 0 0 0 0 0 0 0 0 0 0 0 0 0 0 0 0 0 0 0 0 0 0 0 0 0 0 0 0 0 0 0 0 0 0 0 0 0 0 0 0 0 0 0 0 0 0 0 0 0 0 0 0 0 0 0 0 0 0 0 0 0 0 0 0 0 0 0 0 0 0 0 0 0 0 0 0 0 0 0 0 0 0 0 0 0 0 0 0 0 0 0 0 0 0 0 0 0 0 0 0 0 0 0 0 0 0 0 0 0 0 0 0 0 0 0 0 0 0 0 0 0 0 0 0 0 0 0 0 0 0 0 0 0 0 0 0 0 0 0 0 0 0 0 0 0 0 0 0 0 0 0 0 0 0 0 0 0 0 0 0 0 0 0 0 0 0 0 0 0 0 0 0 0 0 0 0 0 0 0 0 0 0 0 0 0 0 0 0 0 0 0 0 0 0 0 0 0 0 0 0 0 0 0 0 0 0 0 0 0 0 0 0 0 0 0 0 0 0 0 0 0 0 0 0 0 0 0 0 0 0 0 0 0 0 0 0 0 0 0 0 0 0 0 0 0 0 0 0 0 0 0 0 0 0 0 0 0 0 0 0 0 0 0 0 0 0 0 0 0 0 0 0 0 0 0 0 0 0 0 0 0 0 0 0 0 0 0 0 0 0 0 0 0 0 0 0 0 0 0 0 0 0 0 0 0 0 0 0 0 0 0 0 0 0 0 0 0 0 0 0 0 0 0 0 0 0 0 0 0 0 0 0 0 0 0 0 0 0 0 0 0 0 0 0 0 0 0 0 0 0 0 0 0 0 0 0 0 0 0 0 0 0 0 0 0 0 0 0 0 0 0 0 0 0 0 0 0 0 0 0 0 0 0 0 0 0 0 0 0 0 0 0 0 0 0 0 0 0 0 0 0 0 0 0 0 0 0 0 0 0 0 0 0 0 0 0 0 0 0 0 0 0 0 0 0 0 0 0 0 0 0 0 0 0 0 0 0 0 0 0 0 0 0 0 0 0 0 0 0 0 0 0 0 0 0 0 0 0 0 0 0 0 0 0 0 0 0 0 0 0 0 0 0 0 0 0 0 0 0 0 0 0 0 0 0 0 0 0 0 0 0 0 0 0 0 0 0 0 0 0 0 0 0 0 0 0 0 0 0 0 0 0 0 0 0 0 0 0 0 0 0 0 0 0 0 0 0 0 0 0 0 0 0 0 0 0 0 0 0 0 0 0 0 0 0 0 0 0 0 0 0 0 0 0 0 0 0 0 0 0 0 0 0 0 0 0 0 0 0 0 0 0 0 0 0 0 0 0 0 0 0 0 0 0 0 0 0 0 0 0 0 0 0 0 0 0 0 0 0 0 0 0 0 0 0 0 0 0 0 0 0 0 0 0 0 0 0 0 0 0 0 0 0 0 0 0 0 0 0 0 0 0 0 0 0 0 0 0 0 0 0 0 0 0 0 0 0 0 0 0 0 0 0 0 0 0 0 0 0 0 0 0 0 0 0 0 0 0 0 0 0 0 0 0 0 0 0 0 0 0 0 0 0 0 0 0 0 0 0 0 0 0 0 0 0 0 0 0 0 0 0 0 0 0 0 0 0 0 0 0 0 0 0 0 0 0 0 0 0 0 0 0 0 0 0 0 0 0 0 0 0 0 0 0 0 0 0 0 0 0 0 0 0 0 0 0 0 0 0 0 0 0 0 0 0 0 0 0 0 0 0 0 0 0 0 0 0 0 0 0 0 0 0 0 0 0 0 0 0 0 0 0 0 0 0 0 0 0 0 0 0 0 0 0 0 0 0 0 0 0 0 0 0 0 0 0 0 0 0 0 0 0 0 0 0 0 0 0 0 0 0 0 0 0 0 0 0 0 0 0 0 0 0 0 0 0 0 0 0 0 0 0 0 0 0 0 0 0 0 0 0 0 0 0 0 0 0 0 0 0 0 0 0 0 0 0 0 0 0 0 0 0 0 0 0 0 0 0 0 0 0 0 0 0 0 0 0 0 0 0 0 0 0 0 0 0 0 0 0 0 0 0 0 0 0 0 0 0 0 0 0 0 0 0 0 0 0 0 0 0 0 0 0 0 0 0 0 0 0 0 0 0 0 0 0 0 0 0 0 0 0 0 0 0 0 0 0 0 0 0 0 0 0 0 0 0 0 0 0 0 0 0 0 0 0 0 0 0 0 0 0 0 0 0 0 0 0 0 0 0 0 0 0 0 0 0 0 0 0 0 0 0 0 0 0 0 0 0 0 0 0 0 0 0 0 0 0 0 0 0 0 0 0 0 0 0 0 0 0 0 0 0 0 0 0 0 0 0 0 0 0 0 0 0 0 0 0 0 0 0 0 0 0 0 0 0 0 0 0 0 0 0 0 0 0 0 0 0 0 0 0 0 0 0 0 0 0 0 0 0 0 0 0 0 0 0 0 0 0 0 0 0 0 0 0 0 0 0 0 0 0 0 0 0 0 0 0 0 0 0 0 0 0 0 0 0 0 0 0 0 0 0 0 0 0 0 0 0 0 0 0 0 0 0 0 0 0 0 0 0 0 0 0 0 0 0 0 0 0 0 0 0 0 0 0 0 0 0 0 0 0 0 0 0 0 0 0 0 0 0 0 0 0 0 0 0 0 0 0 0 0 0 0 0 0 0 0 0 0 0 0 0 0 0 0 0 0 0 0 0 0 0 0 0 0 0 0 0 0 0 0 0 0 0 0 0 0 0 0 0 0 0 0 0 0 0 0 0 0 0 0 0 0 0 0 0 0 0 0 0 0 0 0 0 0 0 0 0 0 0 0 0 0 0 0 0 0 0 0 0 0 0 0 0 0 0 0 0 0 0 0 0 0 0 0 0 0 0 0 0 0 0 0 0 0 0 0 0 0 0 0 0 0 0 0 0 0 0 0 0 0 0 0 0 0 0 0 0 0 0 0 0 0 0 0 0 0 0 0 0 0 0 0 0 0 0 0 0 0 0 0 0 0 0 0 0 0 0 0 0 0 0 0 0 0 0 0 0 0 0 0 0 0 0 0 0 0 0 0 0 0 0 0 0 0 0 0 0 0 0 0 0 0 0 0 0 0 0 0 0 0 0 0 0 0 0 0 0 0 0 0 0 0 0 0 0 0 0 0 0 0 0 0 0 0 0 0 0 0 0 0 0 0 0 0 0 0 0 0 0 0 0 0 0 0 0 0 0 0 0 0 0 0 0 0 0 0 0 0 0 0 0 0 0 0 0 0 0 0 0 0 0 0 0 0 0 0 0 0 0 0 0 0 0 0 0 0 0 0 0 0 0 0 0 0 0 0 0 0 0 0 0 0 0 0 0 0 0 0 0 0 0 0 0 0 0 0 0 0 0 0 0 0 0 0 0 0 0 0 0 0 0 0 0 0 0 0 0 0 0 0 0 0 0 0 0 0 0 0 0 0 0 0 0 0 0 0 0 0 0 0 0 0 0 0 0 0 0 0 0 0 0 0 0 0 0 0 0 0 0 0 0 0 0 0 0 0 0 0 0 0 0 0 0 0 0 0 0 0 0 0 0 0 0 0 0 0 0 0 0 0 0 0 0 0 0 0 0 0 0 0 0 0 0 0 0 0 0 0 0 0 0 0 0 0 0 0 0 0 0 0 0 0 0 0 0 0 0 0 0 0 0 0 0 0 0 0 0 0 0 0 0 0 0 0 0 0 0 0 0 0 0 0 0 0 0 0 0 0 0 0 4 4 4 4 4 4 4 4 4 4 4 4 4 4 4 4 4 4 4 4 4 4 4 4 4 4 4 4 4 4 4 4 4 4 4 4 4 4 4 4 4 4 4 4 4 4 4 4 4 4 4 4 4 4 4 4 4 4 4 4 4 4 4 4 4 4 4 4 4 4 4 4 4 4 4 4 4 4 4 4 4 4 4 4 4 4 4 4 4 4 4 4 4 4 4 4 4 4 4 4 4 4 4 4 4 4 4 4 4 4 4 4 4 4 3 3 3 3 3 3 3 3 3 3 3 3 3 3 3 3 3 3 3 3 3 3 3 3 3 3 3 3 3 3 3 3 3 3 3 3 3 3 3 3 3 3 3 3 3 3 3 3 3 3 3 3 3 3 3 3 3 3 3 3 3 3 3 3 3 3 3 3 3 3 3 3 3 3 3 3 3 3 2 2 2 2 2 2 2 2 1 1 1 1 1 1 1 1 
</DataArray>
<DataArray type="Float64" Name="u" NumberOfComponents="1" format="ascii">
2.5413880359854910e-03 1.8234130879955589e-02 7.9004255655394705e-04 1.6983825923125775e-02 8.8723884278892103e-03 7.8737487170224177e-02 1.1036064313040780e-03 1.3461586116359986e-01 1.9834848833326004e-02 1.5392136596914741e-01 2.2987789264635591e-01 1.0374712466577062e-01 4.6427510189493801e-02 6.6481166921944113e-02 1.3142831147784244e-02 2.2082672080825896e-01 2.3039558411025708e-02 4.0293845059516847e-01 3.0588632178437741e-01 2.9732889544478469e-01 1.3681097319325927e-01 2.6488711224235933e-01 1.6599124683411831e-01 1.3142079709285470e-01 2.0338601137169177e-01 4.0058962337985232e-01 4.1806708691300576e-01 3.1742506615524607e-01 3.1762801122045353e-01 1.5412536508825714e-01 3.9662281210756323e-01 2.9171602527217044e-01 4.0785869002618508e-01 7.4082568938362447e-01 9.4081063448380808e-01 5.7537962807857301e-01 8.6637463374526003e-01 8.3740748794475328e-01 2.5087161247337675e-01 8.4909889799525917e-01 4.4432535256420058e-01 5.7005547722495531e-01 5.4777887766461464e-01 4.5295170113708355e-01 6.3393415644011353e-02 3.3225092730049935e-02 1.4044433677783413e-02 1.2448000786147238e-02 5.4859912734977728e-02 3.5090801464409134e-02 8.8537598982417115e-02 1.0078091642875877e+00 3.2908821040857184e-02 6.0572929267529191e-02 9.2340689224657824e-03 4.2161136301236352e-03 1.1884073926311571e+00 2.7613484353376953e-02 7.7703859293721117e-02 3.2766961181715171e-01 7.8600350793748031e-01 5.2916133617983097e-01 6.4827375593189218e-01 7.7539476586500872e-02 3.8712419739360254e-01 3.1117183118748842e-01 4.5164928521430940e-02 1.1761842591430551e+00 1.2592850390760582e+00 1.2562883698240923e-01 1.1852134819538972e-01 2.4692508429088642e-01 4.5033070975837819e-01 1.5361636033924911e-01 4.9139835729460124e-01 6.2374325308953538e-02 3.3850241064661368e-01 2.9001083728219124e-01 6.1253663091858007e-02 6.8739749767106520e-02 1.3887767656253813e-01 9.3533077155665867e-01 1.0815244552551624e+00 1.0681593593454450e+00 1.1410404816457893e+00 8.6975836500396841e-01 9.9113673739611752e-01 7.8263682175480109e-01 3.0976877140611891e-01 1.5219031036493769e-01 1.5054486760721686e-01 7.9936702399109466e-02 5.5809212858808610e-01 9.4621405688906712e-01 5.9906411817609140e-01 1.2316159184286666e+00 7.7456727096710004e-02 6.0614292168234485e-01 3.6378395702260025e-01 7.8639245549861370e-01 1.1637525388539027e+00 1.0268255906047217e+00 7.8956096974269682e-02 5.3120678043707140e-02 2.2385324549418237e-01 5.4906084971629010e-01 7.8035262311852249e-01 7.4874299611625361e-01 1.3465793150084840e-01 4.3138929518106212e-01 5.5559394747845392e-01 5.5245777699547238e-01 3.5503536390283752e-01 7.7077139695243033e-02 4.4260919456023917e-01 6.0455676109792222e-01 6.8235826077863437e-01 1.5016464975008045e-01 3.7477302684426445e-01 4.4368523527990067e-01 5.4513381020669505e-01 8.1393792805036780e-02 7.3654450669646793e-02 1.2958916191163233e-01 2.7359713280097986e-01 3.0689457158383288e-01 5.1995578645013685e-01 2.1686898775609084e-01 9.3434535081843295e-01 7.7761066596222905e-01 1.0225258638462069e+00 9.0811944558560309e-01 6.3708878829863957e-01 4.3710534015405900e-01 8.3947306895596618e-01 6.2415780589384365e-02 3.2964532351270787e-01 6.2163943299629565e-01 4.0800244279805842e-01 3.4645474150181876e-02 3.1875629790633608e-01 2.7269340537171899e-01 1.5102525787895715e-01 3.2762457930008726e-01 1.1008812620650094e-01 4.7217273567071123e-02 9.3352396685165329e-01 8.6430427998779047e-01 9.9435345752438364e-01 4.6505672042363333e-02 1.2748368326935083e-01 1.9687115375356462e-01 2.7879765810996125e-02 2.1761691844282913e-01 3.2441710041351357e-01 2.1678728088623977e-01 1.3123413121652727e-01 1.9523071413556028e-01 6.0466978699672332e-02 9.0195683433847151e-02 1.7360026048827948e-01 1.1349331386275666e-01 1.9663246678420631e-02 1.2569967409944583e-02 7.5124542836592145e-02 1.1440219884829652e-02 7.9022188644522748e-02 4.1027087603796301e-02 4.7139017632515781e-02 1.0017383143271262e-01 8.6140896673213063e-01 9.0734571174871370e-01 8.8905758252119638e-01 1.1818989160375345e-03 3.3379228004352703e-03 1.5051471647162362e-01 1.3192129053225782e-01 7.9916806697248641e-02 1.7670153050805348e-01 1.7444263115945807e-01 7.5639351737833982e-02 3.8682612706654865e-02 1.4325878773147954e-01 1.0778144437263878e-01 1.8844502380967157e-01 2.2945201357321715e-01 3.2402464487802887e-02 8.9646212599498942e-01 8.2707839380255321e-01 8.3258607258206685e-01 7.1278773663357065e-01 8.1161989292358072e-01 8.0656000592888399e-01 7.2627400033173473e-01 2.8038455735466966e-01 3.4096236807110725e-01 2.7587957404898389e-01 4.1398883188797531e-01 4.6407650764487496e-01 5.6854792573531365e-01 6.4184577332119019e-01 5.8728058160023466e-01 5.2404151136206978e-01 5.0116067234454886e-01 4.4453167764981971e-01 2.3285553732758776e-01 2.8573244000539522e-01 3.6034023692963346e-01 4.3595657158820156e-01 3.7218910720283732e-01 4.7095744208655804e-01 3.3211854009285136e-01 3.3503450584972960e-01 5.3028832613819132e-01 1.4993734326212218e+00 1.1522820342354618e+00 1.4943470993998957e+00 1.7373281558167233e+00 9.5567248581453990e-02 4.6398691891862562e-02 8.5831788405831194e-02 9.2328126296937940e-01 9.1216974558938824e-01 8.8466103302554444e-01 7.4954736737990657e-01 4.4717071501901778e-01 6.9036356751901473e-01 3.9083371069681383e-01 5.6289796106790391e-01 6.9101205068752924e-01 1.9556431848172839e-01 1.5447248729938162e-01 2.4862647996448400e-01 9.9782902896092296e-01 9.8919470079720240e-01 9.9840251139734737e-01 7.9431436480512718e-01 9.4239500872798698e-01 9.4543593223350941e-01 9.8827682946854956e-01 8.6995582792819093e-01 9.4887417488702042e-01 9.5946059099902059e-01 9.9742531295106374e-01 9.7158692610402753e-01 9.9256915200491513e-01 9.8774095097456849e-01 7.3169956555450044e-01 8.1734551617376905e-01 6.4593240165043608e-01 5.0731310534063156e-01 4.0825048273995379e-01 3.7987491158915987e-01 4.5669210754984330e-01 5.8212904995667836e-01 4.7389724867386840e-01 6.5439549080575221e-01 6.2281905893679945e-01 7.4298747423745426e-01 5.6965330505740497e-01 7.5894580230640907e-01 4.8879500822799582e-01 9.2673806662476776e-01 9.6522728433431793e-01 7.5633134990000517e-01 9.0808160154135131e-01 9.0922979813480098e-01 8.8665886744450551e-01 8.8263174205943495e-01 8.3816986624136114e-01 7.9701395998251257e-01 9.3958819146463335e-01 9.1997219388809515e-01 8.0779488240886499e-01 8.2685553049491411e-01 7.1437841476126773e-01 7.5139291304819755e-01 6.0583095895925210e-01 5.4381215489973556e-01 5.1948462862573419e-01 6.4481478619442134e-01 8.4868117242464103e-01 6.5148731049114472e-01 9.9696083715711536e-01 9.6791290193325952e-01 3.8650326729967860e-01 4.9554863976337693e-01 6.5535612167254387e-01 6.3874881953283569e-01 7.7449987559373135e-01 7.1551529585281326e-01 9.2875188392462271e-01 4.6374968178380371e-01 5.0097840809518279e-01 5.5163058874756954e-01 6.3777640371392075e-01 4.3976290467147816e-01 6.1703377173338336e-01 5.4109301925301290e-01 7.1269556245171406e-01 7.0675891479511721e-01 7.1920673158354154e-01 8.2544562775756702e-01 9.5283652994321777e-01 8.1572983861451354e-01 3.9772605818392537e-01 4.3487889287512960e-01 3.7305519763949829e-01 3.5841809387714918e-01 2.3817305331431790e-01 3.0023165048131206e-01 1.1623930103781546e-01 1.7429704645494043e-01 6.9415948541048739e-02 7.0840787713018294e-03 3.5675102334937918e-02 6.8980138567212107e-02 3.9851565545657344e-02 9.7591097514157690e-02 6.7841691883135602e-02 1.3751524010958044e-01 1.2490854140218187e-01 5.7634409268513941e-03 2.0824899585359845e-02 3.5871887341711742e-03 4.9534271616088638e-01 3.3242340525335073e-01 3.4866998737078403e-01 4.4373744854051544e-01 5.8918843514911701e-01 3.2952244482669402e-01 2.4320393440465579e-01 1.6620831431399125e-01 2.6212053791396372e-01 1.8521555181651372e-01 4.6107246213237402e-01 2.0590708283683281e-02 9.5411294926075696e-01 9.0455788644201318e-01 8.6788914635216041e-01 9.1271739045158062e-01 9.6528096503760019e-01 9.6289843717105927e-01 9.3621661350719954e-01 9.8833981467642384e-01 9.9908156753808830e-01 9.4562077459576404e-04 9.6950571524168139e-02 1.8339724079984080e-03 8.4611443752652477e-02 4.0310870058842360e-02 5.8720412299557587e-02 2.9749248109933298e-02 7.0019822661656871e-03 1.7648207785143595e-02 1.7112887504660494e-02 4.1793650595994521e-03 8.9846240171264002e-01 8.2097398285493761e-01 1.1797534489524546e+00 9.4809053478713257e-01 1.0239857770577596e+00 9.4526520250895485e-01 6.9437432684773137e-01 8.3826899162649893e-01 9.0268560600008785e-01 9.9483806345184744e-01 6.4732261576680727e-01 7.5149869698131933e-01 8.0522461447421589e-01 9.8849721149423275e-01 8.6170729217219777e-01 9.4226120188615770e-01 1.2142364543872246e+00 8.2387458966842497e-01 1.1970997540162920e+00 7.2656747998945204e-01 6.7351717011340029e-01 2.2217148378489163e-02 1.3207234095116593e-01 9.6947818095395773e-03 6.8610612947208202e-02 6.2401962391436756e-02 8.5443493051155850e-01 9.8570803715835920e-01 9.9433840169946996e-01 1.0013705151355921e+00 1.0093373603488438e+00 1.0380677129518729e+00 1.0036918513082873e+00 1.0589068833686932e-02 1.0067810318799459e+00 1.1106771820441548e+00 1.0348950993499222e+00 1.0407464937717685e+00 1.0128279370179121e+00 1.0348154751476151e+00 1.1683689553160894e+00 1.3421171464905142e+00 1.0741480625050932e+00 1.3855480916549667e+00 1.2619530553985023e+00 1.2485632335559875e+00 1.1033884115924839e+00 1.0125626904631853e+00 9.5540758466973286e-01 1.1196904348937933e+00 1.1687006173096783e+00 1.0916755637003741e+00 1.1301039217835469e+00 1.1629255227930702e+00 1.2600681208012894e+00 1.3410202276443650e+00 1.1642761316408337e+00 1.0524134454550451e+00 9.9689156921625943e-01 9.8512904488438013e-01 1.2545564085170386e+00 1.0694183139317219e+00 1.0480956538171911e+00 9.6467224937325191e-01 1.0095812413853915e+00 1.3220603981817622e+00 1.1313111709834138e+00 1.2656463812248790e+00 1.5615099560016383e+00 1.2123198694429935e+00 1.4766686979894224e+00 1.5162523716511367e+00 1.6749748027674451e+00 1.5636967025992088e+00 4.1021606605510907e-02 1.7196054278365777e-02 3.3128999366235840e-02 1.0255239509960241e+00 1.3516633389020880e+00 1.0033509465347945e+00 1.0662016045662912e+00 1.0565101264162691e+00 5.6122653420173363e-03 2.6051860096930990e-01 2.7158010077599781e-02 1.7373885041491444e+00 3.0348545146478623e-01 1.4411208935160474e-01 2.0856369439287850e-01 1.3318884433044256e-01 3.0722634768048440e-01 2.0369332921367403e-02 1.2034012415997639e-01 5.9908153165015944e-02 1.6064151240038117e-02 9.7657187619006602e-02 3.7703199248780010e-02 9.7058805391728031e-01 8.6971911448697381e-01 1.0251547460288899e+00 4.3841619992748959e-01 9.2602514983163720e-01 7.7610011258554823e-01 3.9416273162581483e-01 5.9522847352677455e-01 5.4950346359885627e-01 7.3184924209904922e-01 2.9627231117029207e-01 6.2129960159112185e-01 2.3844358319309356e-01 4.4991475325883667e-01 2.4308930371343640e-01 1.8639181713099806e-01 2.8219551732874038e-01 4.8707105745384827e-01 3.4325556387115741e-01 2.2653814858484023e-01 3.7759621291150336e-01 4.6991343132953023e-01 3.6935644761563524e-01 2.4246643645570720e-01 2.9773165465450613e-01 3.5535871249420392e-01 2.5377574990764051e-01 7.8087252944823701e-02 3.7136813371427108e-01 2.6231817765834539e-02 1.0422932209937585e+00 3.5383078859725081e-02 1.7432135364019502e-01 9.4324429692126094e-02 1.5735996089445156e-01 2.1540072571778829e-01 2.2004456096160424e-01 3.0184053111923237e-01 1.2832692660724207e-01 2.7550751788625039e-01 6.2430014972744932e-02 4.4950118709652660e-02 3.4704009845023859e-01 2.8534696294300699e-01 3.6406831596557221e-01 1.5400882326964069e-01 7.1044644441917312e-02 1.0703628514867560e+00 9.0848730429606817e-01 1.1646994970627575e+00 1.0525407302786447e+00 1.3329530013934956e+00 1.2654124090973624e+00 1.3459594083900672e+00 1.4193405652219850e+00 1.6117948590807853e+00 1.5365254101628110e+00 8.7432981291434442e-01 8.1715281541030826e-01 9.5268461730871057e-01 1.0971638603588769e+00 1.1945447912607736e+00 5.2774177299786867e-02 1.5454919696578620e+00 1.4440605220372844e+00 1.6823842044302983e+00 2.5891640184170156e-01 1.8592475317997148e-01 6.2904145731834471e-01 5.1707514957864686e-01 5.2285231208765848e-01 5.6368316065674207e-01 6.1859437558880859e-01 4.7114097860484538e-01 7.0292631627629798e-01 1.2473585889812258e+00 5.5695079138718728e-01 4.2108456064966715e-01 6.9235291029181489e-01 8.5500547282270045e-01 7.2886010996612793e-01 7.7884760578710632e-01 9.8671465381085843e-01 8.8273743130569504e-01 7.1516039174369039e-01 1.1131542879585754e-01 1.2034558993046560e+00 9.5285610424203870e-01 8.1434705595538137e-01 9.9036019374764028e-01 1.0870796972204544e+00 7.7165579531187256e-01 5.7736133141877333e-01 8.7919743290795194e-01 5.8933090242349351e-01 4.8057615376369256e-01 1.1862787480250028e+00 1.0901341802150766e+00 1.3054891788743355e+00 1.1696897826118215e+00 1.0542362069889859e+00 9.6912824707183243e-01 9.2267074819935124e-01 1.2539800762423980e+00 1.4334978811820591e+00 1.4282711815630089e-01 7.7815511621190325e-02 1.8139780139761568e+00 5.2625480111912537e-01 8.1992803212537407e-02 3.0866613771670859e-01 1.5728450941462205e-01 6.3320947371724823e-01 4.1269806222099026e-01 5.3618591560144813e-01 3.0310727997098752e-01 5.0181517063180592e-01 1.4942927958093569e-01 7.2736484830948278e-01 8.2021330272890131e-02 1.6566041820845581e-01 1.7855866252042905e+00 1.5516756211422877e+00 1.3382991741851649e+00 1.4053257638817689e+00 1.4583077476445800e+00 9.6846388438592901e-01 7.6844075244974297e-01 6.4823479125368599e-01 4.5318512890353069e-01 7.5235277984817361e-01 4.3883228436037097e-01 7.7319318697389483e-01 4.9362700824487765e-01 5.3314195472761139e-01 2.8143799974154610e-01 3.9006139934487116e-01 3.2230776700976538e-01 6.3276661525008904e-01 3.9424288428159371e-01 3.3815005910470131e-01 5.7091646372296745e-01 2.9855485187164871e-01 1.5814550629492802e-01 8.8773848187323520e-02 7.5753056664006058e-02 1.7259959567485517e-01 1.7485638607329976e+00 1.4362417596201887e-01 7.4143132549538082e-02 6.6514157535973034e-02 3.5565247637210917e-01 1.1942137862271765e-01 3.1632287473657061e-01 2.7071172614617872e-01 2.7000012531574991e-01 4.5805640497290612e-01 1.6934725769142072e+00 1.6370495450258473e+00 1.5383700688846629e+00 1.5117848189433114e+00 1.4919522943733159e+00 1.3690266066917287e+00 1.0839385697413824e+00 1.5012591776192157e+00 1.4224790867043473e+00 1.2289754354056170e+00 1.2969627887257871e+00 1.1861601072232719e+00 1.0241042816450470e+00 8.3815383991593562e-01 9.6822220296678507e-01 9.3110708523024344e-01 8.7566119964279943e-01 7.9018317256463855e-01 7.4426376434644481e-01 1.1416437366700842e+00 1.3166149167188430e+00 1.0662992400096860e+00 7.1425090369324007e-01 6.5752357186590671e-01 6.8655523339819391e-01 7.4425618248095837e-01 7.8259086119682797e-01 7.2520718692194674e-01 8.9071363239957424e-01 1.2138814418756061e+00 1.3174959712483241e+00 1.3510045888946565e-01 2.3410976721778931e-01 4.9033247931965319e-02 2.0085070580625522e-01 1.6838790514511576e-01 5.7377700925186209e-02 1.0227941382793151e-01 5.5971947300281222e-01 3.2982690271325354e-01 7.8238623460049478e-02 1.6623945720812796e+00 1.8685302135017747e+00 1.9297279016725457e+00 1.5070712440871392e+00 1.6693002337231646e+00 1.7883563911975631e+00 1.8605948700205355e+00 1.6915789622713067e+00 1.3918311795641545e+00 1.3554635910316346e+00 1.2041359701492711e+00 1.8382204054398854e+00 1.4154919482889645e+00 1.5756057168976334e+00 1.3901448615261094e+00 1.1677223955882508e+00 1.3040386827967700e+00 1.6711826512838202e+00 1.6875300169256251e+00 1.7886615163685560e+00 1.4653682278992510e+00 9.0530506875264805e-01 1.0022954534781559e+00 1.3357070314357555e+00 1.4157157850935604e+00 1.1885796810692266e+00 1.5853555485069326e+00 8.3090415618442448e-01 1.0903882665297475e+00 1.1131227363198670e+00 1.9006416318030634e+00 1.8246662787112671e+00 1.9218860836055867e+00 1.4332453719499254e+00 1.202401300484