<?xml version="1.0"?>
<VTKFile type="UnstructuredGrid"  byte_order="LittleEndian">
<UnstructuredGrid>
<Piece NumberOfPoints="2024" NumberOfCells=" 4050">
<Points>
<DataArray type="Float32" NumberOfComponents="3" format="ascii">
0.226242 -4.421732 0.000000 0.226242 -2.341282 0.000000 11.495603 -0.016564 0.000000 0.987439 -2.861394 0.000000 0.226242 -3.385179 0.000000 1.245982 -4.421732 0.000000 0.226242 -1.297344 0.000000 0.987439 -2.078441 0.000000 11.411118 -0.007336 0.000000 11.525038 -0.113198 0.000000 11.432896 -0.103926 0.000000 11.473384 0.081980 0.000000 1.748636 -2.859538 0.000000 1.581085 -3.728249 0.000000 2.258506 -4.421732 0.000000 0.902461 -0.948128 0.000000 0.226242 -0.253407 0.000000 1.916187 -1.642848 0.000000 2.254898 -2.337569 0.000000 11.337721 -0.112619 0.000000 11.387419 0.102799 0.000000 11.305386 0.011522 0.000000 11.561530 -0.207394 0.000000 11.461747 -0.198643 0.000000 11.458504 0.181896 0.000000 2.660629 -3.171977 0.000000 0.226242 0.790531 0.000000 11.451043 0.282637 0.000000 11.604878 -0.298638 0.000000 11.240760 -0.209342 0.000000 11.210641 -0.093899 0.000000 3.271030 -4.421732 0.000000 1.755240 0.276258 0.000000 1.835714 -0.683295 0.000000 0.950504 0.491202 0.000000 2.761160 -1.295282 0.000000 3.268625 -1.990003 0.000000 11.387143 -0.299363 0.000000 11.373178 0.211405 0.000000 11.284688 0.130453 0.000000 11.184132 0.038463 0.000000 11.492107 -0.298031 0.000000 3.607336 -3.727011 0.000000 3.539112 -2.893704 0.000000 0.226242 1.834468 0.000000 0.902461 1.485252 0.000000 11.451043 0.383655 0.000000 11.373178 0.353443 0.000000 11.551885 -0.395373 0.000000 11.654847 -0.386431 0.000000 11.271809 -0.328349 0.000000 11.101227 -0.215644 0.000000 11.069676 -0.066242 0.000000 14.150426 0.032503 0.000000 11.773520 -0.549769 0.000000 0.226242 2.878406 0.000000 11.711164 -0.470294 0.000000 14.180165 0.232197 0.000000 11.458504 0.484396 0.000000 14.168987 0.131800 0.000000 11.473384 0.584312 0.000000 4.169448 -1.410862 0.000000 11.044922 0.088900 0.000000 14.281467 0.243971 0.000000 10.792172 -0.320106 0.000000 10.939837 -0.185021 0.000000 4.310577 -2.221473 0.000000 10.974852 -0.356261 0.000000 4.283554 -4.421732 0.000000 2.580095 0.863713 0.000000 1.674767 1.235811 0.000000 3.123291 -0.401834 0.000000 3.606133 -0.947715 0.000000 11.446544 -0.426135 0.000000 11.320024 -0.447382 0.000000 11.230078 0.297038 0.000000 11.128716 0.199297 0.000000 4.451707 -3.032084 0.000000 0.987439 2.615565 0.000000 1.578679 2.179972 0.000000 11.368283 0.457286 0.000000 11.277250 0.404542 0.000000 11.600681 -0.481107 0.000000 11.169023 -0.471549 0.000000 10.911685 0.018361 0.000000 14.225807 -0.050183 0.000000 14.124580 -0.065153 0.000000 14.251221 0.045844 0.000000 11.655677 -0.563002 0.000000 11.716569 -0.640613 0.000000 11.841575 -0.624422 0.000000 0.226242 3.922302 0.000000 0.903663 3.571889 0.000000 14.183898 0.333146 0.000000 14.269473 0.143487 0.000000 11.382318 0.566789 0.000000 11.495603 0.682856 0.000000 11.396925 0.664865 0.000000 5.296078 -1.294869 0.000000 4.451106 -0.600148 0.000000 11.019595 0.247630 0.000000 14.382770 0.255744 0.000000 14.285137 0.343208 0.000000 14.371971 0.158750 0.000000 10.624347 -0.222299 0.000000 10.792172 -0.119793 0.000000 10.624347 -0.473636 0.000000 10.828769 -0.518806 0.000000 5.296078 -2.337157 0.000000 11.028848 -0.555674 0.000000 0.226242 4.958856 0.000000 14.091595 -0.160633 0.000000 14.051647 -0.253416 0.000000 9.903307 -0.367729 0.000000 7.599220 -1.421991 0.000000 6.994855 -1.845121 0.000000 9.153573 -0.761840 0.000000 14.484072 0.267518 0.000000 14.473463 0.172225 0.000000 10.216754 -0.524859 0.000000 10.433594 -0.648139 0.000000 10.433594 -0.382998 0.000000 14.686677 0.291064 0.000000 14.585375 0.279291 0.000000 9.481727 -0.404827 0.000000 6.308602 -1.294869 0.000000 6.308602 -2.337157 0.000000 5.296078 -4.421732 0.000000 5.296078 -3.379444 0.000000 3.364712 1.583515 0.000000 2.399029 1.980420 0.000000 3.485422 0.491615 0.000000 4.390750 0.119516 0.000000 11.370226 -0.571316 0.000000 11.535019 -0.595878 0.000000 11.169793 0.488216 0.000000 11.069707 0.370566 0.000000 1.849167 3.084223 0.000000 11.273531 0.541586 0.000000 11.192210 -0.689579 0.000000 10.624347 0.029038 0.000000 10.792172 0.280834 0.000000 14.190457 -0.151552 0.000000 14.327033 -0.035214 0.000000 14.352016 0.059186 0.000000 11.647531 -0.750740 0.000000 11.798968 -0.733527 0.000000 11.914957 -0.693845 0.000000 1.245982 4.958856 0.000000 1.748636 3.918631 0.000000 14.180165 0.434095 0.000000 11.290683 0.650156 0.000000 11.427599 0.774819 0.000000 11.525038 0.779490 0.000000 11.307834 0.758725 0.000000 5.296078 -0.252582 0.000000 10.939837 0.374490 0.000000 14.385524 0.356637 0.000000 14.281041 0.444129 0.000000 14.452812 0.072528 0.000000 10.433594 -0.117858 0.000000 10.660184 -0.706389 0.000000 10.887033 -0.759096 0.000000 14.146548 -0.260606 0.000000 14.107538 -0.351213 0.000000 14.004956 -0.342996 0.000000 9.868949 -0.004811 0.000000 9.936655 -0.719983 0.000000 10.216754 -0.203212 0.000000 7.246012 -0.550773 0.000000 8.130177 -1.903081 0.000000 8.003813 -0.940428 0.000000 7.306257 -2.566228 0.000000 8.878153 -0.202774 0.000000 9.690145 -0.926737 0.000000 8.371743 -0.502501 0.000000 8.684570 -1.008380 0.000000 9.232065 -1.182539 0.000000 14.487615 0.363333 0.000000 14.574954 0.185700 0.000000 14.553607 0.085870 0.000000 10.216754 -0.846506 0.000000 10.465190 -0.923357 0.000000 14.671418 0.190234 0.000000 14.787979 0.302838 0.000000 14.777938 0.212650 0.000000 14.587150 0.380129 0.000000 14.690093 0.383458 0.000000 9.399277 -0.037126 0.000000 6.308602 -0.252582 0.000000 6.308602 -3.379444 0.000000 13.951777 -0.428883 0.000000 12.076075 -0.815515 0.000000 13.892401 -0.510608 0.000000 12.640676 -1.022327 0.000000 11.993266 -0.757659 0.000000 12.541052 -1.005603 0.000000 11.561530 0.873686 0.000000 12.442936 -0.981568 0.000000 12.346862 -0.950352 0.000000 12.253357 -0.912125 0.000000 11.604878 0.964930 0.000000 12.162930 -0.867098 0.000000 15.193189 0.349931 0.000000 14.990583 0.326385 0.000000 15.073362 0.236982 0.000000 15.475307 0.283729 0.000000 15.183905 0.266551 0.000000 15.589872 0.320451 0.000000 14.980922 0.239601 0.000000 15.294491 0.361705 0.000000 15.386889 0.293501 0.000000 14.889281 0.314611 0.000000 14.879430 0.226125 0.000000 7.784044 -0.134407 0.000000 15.285397 0.280026 0.000000 10.792172 0.481147 0.000000 15.691364 0.333926 0.000000 15.091887 0.338158 0.000000 6.308602 -4.421732 0.000000 3.606133 2.527127 0.000000 4.330395 1.186611 0.000000 2.761160 2.874693 0.000000 5.296078 0.789706 0.000000 11.455486 -0.734891 0.000000 11.315484 -0.826906 0.000000 10.939837 0.560993 0.000000 11.165014 0.638134 0.000000 2.509833 4.177759 0.000000 11.051229 -0.873646 0.000000 10.343853 0.201576 0.000000 10.624347 0.280374 0.000000 14.346976 -0.241811 0.000000 14.409025 -0.119333 0.000000 14.428260 -0.020245 0.000000 11.745299 -0.870961 0.000000 11.563910 -0.884126 0.000000 11.870242 -0.800955 0.000000 2.258506 4.958856 0.000000 14.168987 0.534492 0.000000 14.269910 0.544555 0.000000 11.456401 0.869375 0.000000 11.251162 0.893931 0.000000 11.094411 0.778739 0.000000 14.381917 0.454164 0.000000 14.371119 0.551158 0.000000 14.529486 -0.005275 0.000000 10.736670 -1.073893 0.000000 14.236550 -0.344750 0.000000 14.184503 -0.448302 0.000000 14.061943 -0.438691 0.000000 9.690145 0.277817 0.000000 10.114638 0.178126 0.000000 9.970003 -1.072237 0.000000 7.100480 0.293729 0.000000 8.130112 -2.755393 0.000000 8.598216 -2.327165 0.000000 8.641393 -1.667772 0.000000 7.617563 -3.136748 0.000000 6.994776 -3.794011 0.000000 8.830102 0.229439 0.000000 8.260878 0.096700 0.000000 9.690145 -1.328255 0.000000 9.279586 -1.641249 0.000000 14.482794 0.464198 0.000000 14.654403 0.099212 0.000000 14.630712 0.009694 0.000000 10.240455 -1.173418 0.000000 10.537985 -1.350698 0.000000 14.755198 0.112554 0.000000 14.788774 0.403620 0.000000 14.855993 0.125895 0.000000 14.583670 0.474233 0.000000 14.684546 0.484268 0.000000 9.314193 0.342326 0.000000 6.308602 0.789706 0.000000 14.010012 -0.522563 0.000000 12.053273 -0.932175 0.000000 11.946301 -0.862935 0.000000 13.952028 -0.602371 0.000000 13.827151 -0.587725 0.000000 12.741262 -1.031648 0.000000 12.535963 -1.116114 0.000000 12.632364 -1.132296 0.000000 12.408266 -1.092856 0.000000 11.509553 0.969532 0.000000 12.315301 -1.062650 0.000000 12.224820 -1.025660 0.000000 12.137318 -0.982089 0.000000 11.551885 1.058635 0.000000 11.654847 1.052723 0.000000 15.192026 0.450602 0.000000 15.095049 0.423708 0.000000 14.892571 0.403583 0.000000 14.990400 0.427111 0.000000 15.158381 0.165921 0.000000 15.057585 0.152579 0.000000 15.561562 0.219288 0.000000 15.497095 0.385252 0.000000 15.460767 0.205946 0.000000 15.395793 0.373478 0.000000 15.259175 0.179263 0.000000 15.662357 0.232630 0.000000 15.598397 0.397025 0.000000 14.956789 0.139237 0.000000 15.297527 0.443832 0.000000 15.359971 0.192604 0.000000 7.908638 0.616982 0.000000 10.624347 0.531711 0.000000 10.792172 0.681460 0.000000 15.763153 0.245972 0.000000 15.699700 0.408798 0.000000 15.792855 0.347401 0.000000 13.680486 -0.726476 0.000000 13.599873 -0.787352 0.000000 13.514983 -0.842109 0.000000 11.711164 1.136586 0.000000 13.426281 -0.890447 0.000000 12.842262 -1.033515 0.000000 13.334251 -0.932103 0.000000 13.239397 -0.966847 0.000000 13.142236 -0.994492 0.000000 13.756384 -0.659812 0.000000 13.043299 -1.014886 0.000000 11.773520 1.216061 0.000000 15.877251 0.330477 0.000000 12.943125 -1.027917 0.000000 15.136843 0.084541 0.000000 10.624347 0.783048 0.000000 7.321126 -4.421732 0.000000 3.847553 3.469638 0.000000 4.571816 2.650816 0.000000 5.296078 1.831993 0.000000 6.308602 1.831993 0.000000 11.408152 -0.976569 0.000000 11.201248 -1.035434 0.000000 10.939837 0.747497 0.000000 3.271030 4.958856 0.000000 3.607336 4.264135 0.000000 11.029660 -1.219185 0.000000 10.312947 0.494209 0.000000 14.454701 -0.225961 0.000000 14.359689 -0.373500 0.000000 14.574863 -0.069269 0.000000 14.562427 -0.210111 0.000000 11.887143 -0.995546 0.000000 11.67780
[...]
<CellData Scalars="Label">
<DataArray type="Int32" Name="Label" format="ascii">
0 0 0 0 0 0 0 0 0 0 0 0 0 0 0 0 0 0 0 0 0 0 0 0 0 0 0 0 0 0 0 0 0 0 0 0 0 0 0 0 0 0 0 0 0 0 0 0 0 0 0 0 0 0 0 0 0 0 0 0 0 0 0 0 0 0 0 0 0 0 0 0 0 0 0 0 0 0 0 0 0 0 0 0 0 0 0 0 0 0 0 0 0 0 0 0 0 0 0 0 0 0 0 0 0 0 0 0 0 0 0 0 0 0 0 0 0 0 0 0 0 0 0 0 0 0 0 0 0 0 0 0 0 0 0 0 0 0 0 0 0 0 0 0 0 0 0 0 0 0 0 0 0 0 0 0 0 0 0 0 0 0 0 0 0 0 0 0 0 0 0 0 0 0 0 0 0 0 0 0 0 0 0 0 0 0 0 0 0 0 0 0 0 0 0 0 0 0 0 0 0 0 0 0 0 0 0 0 0 0 0 0 0 0 0 0 0 0 0 0 0 0 0 0 0 0 0 0 0 0 0 0 0 0 0 0 0 0 0 0 0 0 0 0 0 0 0 0 0 0 0 0 0 0 0 0 0 0 0 0 0 0 0 0 0 0 0 0 0 0 0 0 0 0 0 0 0 0 0 0 0 0 0 0 0 0 0 0 0 0 0 0 0 0 0 0 0 0 0 0 0 0 0 0 0 0 0 0 0 0 0 0 0 0 0 0 0 0 0 0 0 0 0 0 0 0 0 0 0 0 0 0 0 0 0 0 0 0 0 0 0 0 0 0 0 0 0 0 0 0 0 0 0 0 0 0 0 0 0 0 0 0 0 0 0 0 0 0 0 0 0 0 0 0 0 0 0 0 0 0 0 0 0 0 0 0 0 0 0 0 0 0 0 0 0 0 0 0 0 0 0 0 0 0 0 0 0 0 0 0 0 0 0 0 0 0 0 0 0 0 0 0 0 0 0 0 0 0 0 0 0 0 0 0 0 0 0 0 0 0 0 0 0 0 0 0 0 0 0 0 0 0 0 0 0 0 0 0 0 0 0 0 0 0 0 0 0 0 0 0 0 0 0 0 0 0 0 0 0 0 0 0 0 0 0 0 0 0 0 0 0 0 0 0 0 0 0 0 0 0 0 0 0 0 0 0 0 0 0 0 0 0 0 0 0 0 0 0 0 0 0 0 0 0 0 0 0 0 0 0 0 0 0 0 0 0 0 0 0 0 0 0 0 0 0 0 0 0 0 0 0 0 0 0 0 0 0 0 0 0 0 0 0 0 0 0 0 0 0 0 0 0 0 0 0 0 0 0 0 0 0 0 0 0 0 0 0 0 0 0 0 0 0 0 0 0 0 0 0 0 0 0 0 0 0 0 0 0 0 0 0 0 0 0 0 0 0 0 0 0 0 0 0 0 0 0 0 0 0 0 0 0 0 0 0 0 0 0 0 0 0 0 0 0 0 0 0 0 0 0 0 0 0 0 0 0 0 0 0 0 0 0 0 0 0 0 0 0 0 0 0 0 0 0 0 0 0 0 0 0 0 0 0 0 0 0 0 0 0 0 0 0 0 0 0 0 0 0 0 0 0 0 0 0 0 0 0 0 0 0 0 0 0 0 0 0 0 0 0 0 0 0 0 0 0 0 0 0 0 0 0 0 0 0 0 0 0 0 0 0 0 0 0 0 0 0 0 0 0 0 0 0 0 0 0 0 0 0 0 0 0 0 0 0 0 0 0 0 0 0 0 0 0 0 0 0 0 0 0 0 0 0 0 0 0 0 0 0 0 0 0 0 0 0 0 0 0 0 0 0 0 0 0 0 0 0 0 0 0 0 0 0 0 0 0 0 0 0 0 0 0 0 0 0 0 0 0 0 0 0 0 0 0 0 0 0 0 0 0 0 0 0 0 0 0 0 0 0 0 0 0 0 0 0 0 0 0 0 0 0 0 0 0 0 0 0 0 0 0 0 0 0 0 0 0 0 0 0 0 0 0 0 0 0 0 0 0 0 0 0 0 0 0 0 0 0 0 0 0 0 0 0 0 0 0 0 0 0 0 0 0 0 0 0 0 0 0 0 0 0 0 0 0 0 0 0 0 0 0 0 0 0 0 0 0 0 0 0 0 0 0 0 0 0 0 0 0 0 0 0 0 0 0 0 0 0 0 0 0 0 0 0 0 0 0 0 0 0 0 0 0 0 0 0 0 0 0 0 0 0 0 0 0 0 0 0 0 0 0 0 0 0 0 0 0 0 0 0 0 0 0 0 0 0 0 0 0 0 0 0 0 0 0 0 0 0 0 0 0 0 0 0 0 0 0 0 0 0 0 0 0 0 0 0 0 0 0 0 0 0 0 0 0 0 0 0 0 0 0 0 0 0 0 0 0 0 0 0 0 0 0 0 0 0 0 0 0 0 0 0 0 0 0 0 0 0 0 0 0 0 0 0 0 0 0 0 0 0 0 0 0 0 0 0 0 0 0 0 0 0 0 0 0 0 0 0 0 0 0 0 0 0 0 0 0 0 0 0 0 0 0 0 0 0 0 0 0 0 0 0 0 0 0 0 0 0 0 0 0 0 0 0 0 0 0 0 0 0 0 0 0 0 0 0 0 0 0 0 0 0 0 0 0 0 0 0 0 0 0 0 0 0 0 0 0 0 0 0 0 0 0 0 0 0 0 0 0 0 0 0 0 0 0 0 0 0 0 0 0 0 0 0 0 0 0 0 0 0 0 0 0 0 0 0 0 0 0 0 0 0 0 0 0 0 0 0 0 0 0 0 0 0 0 0 0 0 0 0 0 0 0 0 0 0 0 0 0 0 0 0 0 0 0 0 0 0 0 0 0 0 0 0 0 0 0 0 0 0 0 0 0 0 0 0 0 0 0 0 0 0 0 0 0 0 0 0 0 0 0 0 0 0 0 0 0 0 0 0 0 0 0 0 0 0 0 0 0 0 0 0 0 0 0 0 0 0 0 0 0 0 0 0 0 0 0 0 0 0 0 0 0 0 0 0 0 0 0 0 0 0 0 0 0 0 0 0 0 0 0 0 0 0 0 0 0 0 0 0 0 0 0 0 0 0 0 0 0 0 0 0 0 0 0 0 0 0 0 0 0 0 0 0 0 0 0 0 0 0 0 0 0 0 0 0 0 0 0 0 0 0 0 0 0 0 0 0 0 0 0 0 0 0 0 0 0 0 0 0 0 0 0 0 0 0 0 0 0 0 0 0 0 0 0 0 0 0 0 0 0 0 0 0 0 0 0 0 0 0 0 0 0 0 0 0 0 0 0 0 0 0 0 0 0 0 0 0 0 0 0 0 0 0 0 0 0 0 0 0 0 0 0 0 0 0 0 0 0 0 0 0 0 0 0 0 0 0 0 0 0 0 0 0 0 0 0 0 0 0 0 0 0 0 0 0 0 0 0 0 0 0 0 0 0 0 0 0 0 0 0 0 0 0 0 0 0 0 0 0 0 0 0 0 0 0 0 0 0 0 0 0 0 0 0 0 0 0 0 0 0 0 0 0 0 0 0 0 0 0 0 0 0 0 0 0 0 0 0 0 0 0 0 0 0 0 0 0 0 0 0 0 0 0 0 0 0 0 0 0 0 0 0 0 0 0 0 0 0 0 0 0 0 0 0 0 0 0 0 0 0 0 0 0 0 0 0 0 0 0 0 0 0 0 0 0 0 0 0 0 0 0 0 0 0 0 0 0 0 0 0 0 0 0 0 0 0 0 0 0 0 0 0 0 0 0 0 0 0 0 0 0 0 0 0 0 0 0 0 0 0 0 0 0 0 0 0 0 0 0 0 0 0 0 0 0 0 0 0 0 0 0 0 0 0 0 0 0 0 0 0 0 0 0 0 0 0 0 0 0 0 0 0 0 0 0 0 0 0 0 0 0 0 0 0 0 0 0 0 0 0 0 0 0 0 0 0 0 0 0 0 0 0 0 0 0 0 0 0 0 0 0 0 0 0 0 0 0 0 0 0 0 0 0 0 0 0 0 0 0 0 0 0 0 0 0 0 0 0 0 0 0 0 0 0 0 0 0 0 0 0 0 0 0 0 0 0 0 0 0 0 0 0 0 0 0 0 0 0 0 0 0 0 0 0 0 0 0 0 0 0 0 0 0 0 0 0 0 0 0 0 0 0 0 0 0 0 0 0 0 0 0 0 0 0 0 0 0 0 0 0 0 0 0 0 0 0 0 0 0 0 0 0 0 0 0 0 0 0 0 0 0 0 0 0 0 0 0 0 0 0 0 0 0 0 0 0 0 0 0 0 0 0 0 0 0 0 0 0 0 0 0 0 0 0 0 0 0 0 0 0 0 0 0 0 0 0 0 0 0 0 0 0 0 0 0 0 0 0 0 0 0 0 0 0 0 0 0 0 0 0 0 0 0 0 0 0 0 0 0 0 0 0 0 0 0 0 0 0 0 0 0 0 0 0 0 0 0 0 0 0 0 0 0 0 0 0 0 0 0 0 0 0 0 0 0 0 0 0 0 0 0 0 0 0 0 0 0 0 0 0 0 0 0 0 0 0 0 0 0 0 0 0 0 0 0 0 0 0 0 0 0 0 0 0 0 0 0 0 0 0 0 0 0 0 0 0 0 0 0 0 0 0 0 0 0 0 0 0 0 0 0 0 0 0 0 0 0 0 0 0 0 0 0 0 0 0 0 0 0 0 0 0 0 0 0 0 0 0 0 0 0 0 0 0 0 0 0 0 0 0 0 0 0 0 0 0 0 0 0 0 0 0 0 0 0 0 0 0 0 0 0 0 0 0 0 0 0 0 0 0 0 0 0 0 0 0 0 0 0 0 0 0 0 0 0 0 0 0 0 0 0 0 0 0 0 0 0 0 0 0 0 0 0 0 0 0 0 0 0 0 0 0 0 0 0 0 0 0 0 0 0 0 0 0 0 0 0 0 0 0 0 0 0 0 0 0 0 0 0 0 0 0 0 0 0 0 0 0 0 0 0 0 0 0 0 0 0 0 0 0 0 0 0 0 0 0 0 0 0 0 0 0 0 0 0 0 0 0 0 0 0 0 0 0 0 0 0 0 0 0 0 0 0 0 0 0 0 0 0 0 0 0 0 0 0 0 0 0 0 0 0 0 0 0 0 0 0 0 0 0 0 0 0 0 0 0 0 0 0 0 0 0 0 0 0 0 0 0 0 0 0 0 0 0 0 0 0 0 0 0 0 0 0 0 0 0 0 0 0 0 0 0 0 0 0 0 0 0 0 0 0 0 0 0 0 0 0 0 0 0 0 0 0 0 0 0 0 0 0 0 0 0 0 0 0 0 0 0 0 0 0 0 0 0 0 0 0 0 0 0 0 0 0 0 0 0 0 0 0 0 0 0 0 0 0 0 0 0 0 0 0 0 0 0 0 0 0 0 0 0 0 0 0 0 0 0 0 0 0 0 0 0 0 0 0 0 0 0 0 0 0 0 0 0 0 0 0 0 0 0 0 0 0 0 0 0 0 0 0 0 0 0 0 0 0 0 0 0 0 0 0 0 0 0 0 0 0 0 0 0 0 0 0 0 0 0 0 0 0 0 0 0 0 0 0 0 0 0 0 0 0 0 0 0 0 0 0 0 0 0 0 0 0 0 0 0 0 0 0 0 0 0 0 0 0 0 0 0 0 0 0 0 0 0 0 0 0 0 0 0 0 0 0 0 0 0 0 0 0 0 0 0 0 0 0 0 0 0 0 0 0 0 0 0 0 0 0 0 0 0 0 0 0 0 0 0 0 0 0 0 0 0 0 0 0 0 0 0 0 0 0 0 0 0 0 0 0 0 0 0 0 0 0 0 0 0 0 0 0 0 0 0 0 0 0 0 0 0 0 0 0 0 0 0 0 0 0 0 0 0 0 0 0 0 0 0 0 0 0 0 0 0 0 0 0 0 0 0 0 0 0 0 0 0 0 0 0 0 0 0 0 0 0 0 0 0 0 0 0 0 0 0 0 0 0 0 0 0 0 0 0 0 0 0 0 0 0 0 0 0 0 0 0 0 0 0 0 0 0 0 0 0 0 0 0 0 0 0 0 0 0 0 0 0 0 0 0 0 0 0 0 0 0 0 0 0 0 0 0 0 0 0 0 0 0 0 0 0 0 0 0 0 0 0 0 0 0 0 0 0 0 0 0 0 0 0 0 0 0 0 0 0 0 0 0 0 0 0 0 0 0 0 0 0 0 0 0 0 0 0 0 0 0 0 0 0 0 0 0 0 0 0 0 0 0 0 0 0 0 0 0 0 0 0 0 0 0 0 0 0 0 0 0 0 0 0 0 0 0 0 0 0 0 0 0 0 0 0 0 0 0 0 0 0 0 0 0 0 0 0 0 0 0 0 0 0 0 0 0 0 0 0 0 0 0 0 0 0 0 0 0 0 0 0 0 0 0 0 0 0 0 0 0 0 0 0 0 0 0 0 0 0 0 0 0 0 0 0 0 0 0 0 0 0 0 0 0 0 0 0 0 0 0 0 0 0 0 0 0 0 0 0 0 0 0 0 0 0 0 0 0 0 0 0 0 0 0 0 0 0 0 0 0 0 0 0 0 0 0 0 0 0 0 0 0 0 0 0 0 0 0 0 0 0 0 0 0 0 0 0 0 0 0 0 0 0 0 0 0 0 0 0 0 0 0 0 0 0 0 0 0 0 0 0 0 0 0 0 0 0 0 0 0 0 0 0 0 0 0 0 0 0 0 0 0 0 0 0 0 0 0 0 0 0 0 0 0 0 0 0 0 0 0 0 0 0 0 0 0 0 0 0 0 0 0 0 0 0 0 0 0 0 0 0 0 0 0 0 0 0 0 0 0 0 0 0 0 0 0 0 0 0 0 0 0 0 0 0 0 0 0 0 0 0 0 0 0 0 0 0 0 0 0 0 0 0 0 0 0 0 0 0 0 0 0 0 0 0 0 0 0 0 0 0 0 0 0 0 0 0 0 0 0 0 0 0 0 0 0 0 0 0 0 0 0 0 0 0 0 0 0 0 0 0 0 0 0 0 0 0 0 0 0 0 0 0 0 0 0 0 0 0 0 0 0 0 0 0 0 0 0 0 0 0 0 0 0 0 0 0 0 0 0 0 0 0 0 0 0 0 0 0 0 0 0 0 0 0 0 0 0 0 0 0 0 0 0 0 0 0 0 0 0 0 0 0 0 0 0 0 0 0 0 0 0 0 0 0 0 0 0 0 0 0 0 0 0 0 0 0 0 0 0 0 0 0 0 0 0 0 0 0 0 0 0 0 0 0 0 0 0 0 0 0 0 0 0 0 0 0 0 0 0 0 0 0 0 0 0 0 0 0 0 0 0 0 0 0 0 0 0 0 0 0 0 0 0 0 0 0 0 0 0 0 0 0 0 0 0 0 0 0 0 0 0 0 0 0 0 0 0 0 0 0 0 0 0 0 0 0 0 0 0 0 0 0 0 0 0 0 0 0 0 0 0 0 0 0 0 0 0 0 0 0 0 0 0 0 0 0 0 0 0 0 0 0 0 0 0 0 0 0 0 0 0 0 0 0 0 0 0 0 0 0 0 0 0 0 0 0 0 0 0 0 0 0 0 0 0 0 0 0 0 0 0 0 0 0 0 0 0 0 0 0 0 0 0 0 0 0 0 0 0 0 0 0 0 0 0 0 0 0 0 0 0 0 0 0 0 0 0 0 0 0 0 0 0 0 0 0 0 0 0 0 0 0 0 0 0 0 0 0 0 0 0 0 0 0 0 0 0 0 0 0 0 0 0 0 0 0 0 0 0 0 0 0 0 0 0 0 0 0 0 0 0 0 0 0 0 0 0 0 0 0 0 0 0 0 0 0 0 0 0 0 0 0 0 0 0 0 0 0 0 0 0 0 0 0 0 0 0 0 0 0 0 0 0 0 0 0 0 0 0 0 0 0 0 0 0 0 0 0 0 0 0 0 0 0 0 0 0 0 0 0 0 0 0 0 0 0 0 0 0 0 0 0 0 0 0 0 0 0 0 0 0 0 0 0 0 0 0 0 0 0 0 0 0 0 0 0 0 0 0 0 0 0 0 0 0 0 0 0 0 0 0 0 0 0 0 0 0 0 0 0 0 0 0 0 0 0 0 0 0 0 0 0 0 0 0 0 0 0 0 0 0 0 0 0 0 0 0 0 0 0 0 0 0 0 0 0 0 0 0 0 0 0 0 0 0 0 0 0 0 0 0 0 0 0 0 0 0 0 0 0 0 0 0 0 0 0 0 0 0 0 0 0 0 0 0 0 0 0 0 0 0 0 0 0 0 0 0 0 0 0 0 0 0 0 0 0 0 0 0 0 0 0 0 0 0 0 0 0 0 0 0 0 0 0 0 0 0 0 0 0 0 0 0 0 0 0 0 0 0 0 0 0 0 0 0 0 0 0 0 0 0 0 0 0 0 0 0 0 0 0 0 0 0 0 0 0 0 0 0 0 0 0 0 0 0 0 0 0 0 0 0 0 0 0 0 0 0 0 0 0 0 0 0 0 0 0 0 0 0 0 0 0 0 0 0 0 0 0 0 0 0 0 0 0 0 0 0 0 0 0 0 0 0 0 0 0 0 0 0 0 0 0 0 0 0 0 0 0 0 0 0 0 0 0 0 0 0 0 0 0 0 0 0 0 0 0 0 0 0 0 0 0 0 0 0 0 4 4 4 4 4 4 4 4 4 4 4 4 4 4 4 4 4 4 4 4 4 4 4 4 4 4 4 4 4 4 4 4 4 4 4 4 4 4 4 4 4 4 4 4 4 4 4 4 4 4 4 4 4 4 4 4 4 4 4 4 4 4 4 4 4 4 4 4 4 4 4 4 4 4 4 4 4 4 4 4 4 4 4 4 4 4 4 4 4 4 4 4 4 4 4 4 4 4 4 4 4 4 4 4 4 4 4 4 4 4 4 4 4 4 4 4 4 4 4 4 4 4 4 3 3 3 3 3 3 3 3 3 3 3 3 3 3 3 3 3 3 3 3 3 3 3 3 3 3 3 3 3 3 3 3 3 3 3 3 3 3 3 3 3 3 3 3 3 3 3 3 3 3 3 3 3 3 3 3 3 3 3 3 2 2 2 2 2 2 2 2 2 1 1 1 1 1 1 1 1 1 
</DataArray>
<DataArray type="Float64" Name="u" NumberOfComponents="1" format="ascii">
1.4249526681971998e-03 4.0093892972882003e-02 3.6348695667364336e-03 4.2034435013203225e-02 6.4487215649857793e-02 1.2887440989651486e-01 1.5923329063069792e-03 7.8244624893909504e-03 2.6908526473292987e-02 2.1940358156441905e-02 6.9688657434901630e-02 7.5849192071966429e-02 1.1176699946561642e-02 1.7464226043521359e-02 2.3625837960822799e-01 1.4949383504285246e-01 1.0342334463435993e-01 1.4113273816654590e-01 8.4137612101450071e-02 3.1642286751708149e-01 2.8916871148403328e-01 2.5388187050626349e-01 2.4319064660650558e-01 6.3623472409552151e-01 8.4609035295112811e-01 9.3650011962954549e-01 8.1614739590068952e-01 6.3598627543432229e-01 9.1419793602371979e-01 7.0278433608258040e-01 8.0122628594659773e-01 7.1906007262874660e-01 6.3963972986958439e-01 6.0401683353202118e-01 7.4040775241071288e-01 7.2423822416783545e-01 6.2753871807132100e-01 6.6256332937416551e-01 5.4924302983541839e-01 1.0111614409320873e+00 1.0974461913919418e+00 9.6414656070104687e-01 9.0799665082211556e-01 7.5233563801702941e-01 9.7611069455358745e-01 1.0154225355232955e+00 1.1250907590894639e+00 8.7028742086696842e-01 8.8505051741674956e-01 1.2293392804676631e+00 8.2346921140837892e-01 7.8214465888935814e-01 8.6552395711150498e-01 8.6704146141397032e-01 1.2133814966678775e+00 1.2716343789464897e+00 3.6401679446059110e-01 4.2725986742459243e-01 2.9841080435147055e-01 1.4566957453058568e-01 1.8849107014557064e-02 1.1096392098387922e+00 8.7508426401382344e-01 7.7439504734465547e-01 8.5984221989068965e-01 1.7507568025546388e-01 1.2755041615477986e-01 2.3169472123824542e-01 1.8747486881424069e-01 9.3816144053252837e-02 1.2685531161430452e-02 5.8329510121378381e-02 5.5838394506230876e-03 2.0982587148178758e-02 1.7365517861121560e-01 9.3786940286384540e-02 8.1004864225511897e-02 4.8867201752771927e-02 1.2131802298096708e-01 9.1510707540031072e-02 5.6193118640484034e-02 1.8863405176908371e-01 1.6323959417120310e-01 1.2550612072853040e-01 6.0590371569784696e-01 3.3355579166592841e-01 5.6761913078815962e-01 4.7206191998292651e-01 5.1874748608779009e-01 6.9454993631430040e-01 7.4066158869344856e-01 9.6913048100055521e-01 4.1049184589057419e-01 6.7890139451223597e-01 5.6013401439615684e-01 6.6906100710907368e-01 7.3933705189359866e-01 4.9503702599124588e-01 4.6982043234219745e-01 5.7893555696103860e-01 3.3149420616203712e-02 7.3624470828653810e-02 5.4358008595895971e-02 8.3601768669862742e-01 9.6026104078264707e-01 8.6483207585986688e-01 9.8316625178016126e-01 9.4278261069042479e-01 1.0589772982432049e+00 1.1829064961986728e+00 1.1162589475265756e+00 1.2047623501552398e+00 1.2622889373737860e+00 8.7931153816662033e-01 1.0204584841406443e+00 9.8012307876576732e-01 4.8602841561450150e-01 3.6285464885326295e-02 2.0879849467369913e-02 2.1751571984694909e-01 1.1320951224692892e+00 1.9825024729839430e-01 1.0364011817330596e-01 1.5485395659476714e-01 3.7446137792286632e-01 3.1349803473766757e-01 2.6726290305877493e-01 1.2564700969486773e+00 1.2127762583268211e+00 1.1275753638953381e+00 8.9782342131524984e-01 1.2060180006279730e+00 1.2563205060355247e+00 1.1588205678658090e+00 1.1759173578039941e+00 1.1272103228308676e+00 1.0600464124478650e+00 1.0126077907292153e+00 1.2624016428609692e+00 6.1523236158788894e-02 1.2833131896487646e-01 1.4643720470089003e-01 3.5245448689936287e-01 1.5340197742313819e-01 2.7520595212182042e-01 7.3709066716326904e-02 2.3735894413968572e-01 4.8199269871323322e-02 3.9660323639106621e-01 8.0053255565465220e-02 3.0651058357858751e-01 7.7139142396995319e-01 1.0605258164066589e+00 9.0678709881742403e-01 1.1892682626342670e+00 6.0257450952657388e-01 5.6309459153426045e-01 4.7908749257014061e-01 6.7345098553736982e-01 8.4032736118967311e-01 2.4902994408061077e-01 7.7365081226635324e-02 5.7233418681639048e-01 5.5059605990727312e-01 6.7321455956364451e-01 6.8188440423464236e-01 8.3218807050617261e-01 1.5526164322355851e-01 8.2346161832696343e-02 8.1681797682817747e-02 3.6268229709323485e-01 1.3732016517540371e-01 2.8473924945015977e-01 3.2375796899751624e-01 1.1551770723518318e+00 9.7785168776102871e-01 7.4729256831828184e-01 8.8990096807928398e-01 7.7188023830495323e-01 6.8998912407710478e-01 6.5092888277795735e-01 5.7611521784723185e-01 7.3211518141131759e-01 6.2347216469354771e-01 5.6421622185003861e-01 6.3548323149417385e-01 8.7798300985697486e-01 6.6951740060889586e-01 9.6677787080935407e-01 6.7066991043406643e-01 7.4401476681206313e-01 7.8131953070976101e-01 8.5247879041852248e-01 7.6851685767031563e-01 8.9471518759904534e-01 8.3689281582389441e-01 1.0159535055547488e+00 5.9718876509182994e-01 6.5322948933540692e-01 6.0855209297247104e-01 3.4339269149744739e-01 3.8877197915193806e-01 3.0978197176362432e-01 3.2364087126722951e-01 3.5122811058328030e-01 3.3202096595883612e-01 3.0664092775528584e-01 4.7494706322678104e-01 6.6146471996423728e-01 4.4934912770280477e-01 5.3877108371059512e-01 4.6660187118831448e-01 5.4715301826579466e-01 6.7407475563864061e-02 1.0934885666075911e+00 5.3321140071829490e-02 1.1370761839796205e-01 1.0127620411525300e+00 1.0364627832996256e+00 1.1780918219131129e+00 1.1496137451843351e+00 1.2162493638930778e+00 8.3526998765750621e-02 1.6961134431067226e-02 9.4189857751288492e-02 2.8469506261963564e-02 1.9051858687795586e-01 3.9926535510551295e-02 2.0773453031704114e-01 1.3098335061747779e-01 2.7944022565461707e-01 1.4168683237140389e-01 1.1216687152203406e+00 1.1907915686296051e+00 1.1416429653799303e+00 1.3630698307923714e+00 1.4143807857399053e+00 2.8652049311690680e-01 3.8261507691672492e-01 1.5410003149339219e-01 2.3375221546938818e-01 2.9217944388043610e-01 2.1350249696158485e-01 2.8824576822852982e-01 6.5369889366247880e-02 3.0669959164696631e-01 4.6424699879778639e-02 6.0969481304418505e-01 4.5081271009738588e-01 5.9913725157632136e-01 6.0399219464482390e-01 6.4255923998446873e-01 5.6579770258103212e-01 5.1750534413366656e-01 5.2713881343716984e-01 1.0251513906424801e+00 1.2432586969325623e+00 1.1672806600178078e+00 1.3307106672765279e+00 1.4534908291204947e+00 5.1357499045049715e-01 5.0533807109699092e-01 5.0661936475811098e-01 5.0736484273899907e-01 5.0744800016461400e-01 5.0792361607013603e-01 5.0166515250231514e-01 3.1335264539513394e-02 4.1370910638487468e-02 4.3737242160157501e-02 8.0349572525800203e-02 9.1786205473208343e-02 1.0198214985543851e-01 5.8423809357988077e-02 1.0992879876075767e-01 3.7086856687586683e-02 7.4003831647144969e-02 6.0065952797841868e-02 6.9762477278412685e-02 8.5271838299058211e-02 8.0343906072816870e-02 5.4216267744542400e-03 1.8094850865060047e-02 1.6639641422780415e-02 2.3993669484206108e-02 3.4463646530000461e-02 5.8983784502329911e-02 2.9862246892518606e-02 4.8554762509755912e-02 2.7359441037413462e-01 3.3833717407456154e-01 1.4498964213170934e-01 1.9904134483179478e-01 1.4031226715171749e-01 1.2376914508452641e-01 1.6031724799166719e-01 1.5678994585968747e-01 1.9603242172209095e-01 2.8852091179071621e-01 2.5394834529207649e-01 3.3593971736957834e-01 2.7868440327840993e-01 3.9390301521638404e-01 3.3591771175035334e-01 3.5342332064376580e-01 3.0605031690648765e-01 5.0919452712208568e-01 2.1918953503710092e-01 2.5318622151978792e-01 2.5612327259713341e-01 2.7979969657338177e-01 3.3832777803936442e-01 3.9991448805694796e-01 2.0766729037266624e-01 2.1869725153283393e-01 1.8763662610387943e-01 2.2222139667283958e-01 3.0802698414618868e-01 2.6089594419951534e-01 3.8389552245702130e-01 5.2440427639350973e-01 1.2237370783470737e-02 7.8701163419182922e-03 4.1437190215456235e-02 5.9621658136302649e-03 1.4256368892609750e-02 4.2487783722517346e-03 8.9986296243051364e-03 1.1529158788753564e-02 2.4588368080714587e-02 3.2742598327435826e-02 7.3811118703032877e-02 3.8103847365095012e-01 5.0399233984648606e-01 4.1572455762169774e-01 5.6953598703715413e-01 2.1578534083240358e-01 1.6603530559610802e-01 1.9451765161886309e-01 2.2918089399441047e-01 9.2986006091429166e-02 1.2090162404652532e-01 8.5130629629264820e-02 1.8347933220127854e-01 1.9022561004027350e-01 1.7065621248445065e-01 1.1537622947529284e-01 1.1299571613656331e-01 1.8245100852570537e-01 1.3253474326536568e-01 8.9425282219776567e-02 1.2275833490266649e-01 1.9213704704510237e-01 3.0101161566867152e-01 2.3481811180063791e-01 4.3176485532472769e-01 1.8792926954286804e-01 5.3082771351188093e-02 1.0209748687582676e-01 1.5009056096734974e-01 1.4298296502167590e-01 2.0593646634229218e-01 2.2789313112579118e-01 1.7325627092040899e-01 1.1032592081802864e-01 7.3424636397383128e-02 6.4941372542672432e-02 1.7851358811545093e-01 1.3596170362175380e-01 1.5620832982341135e-01 1.2821728805764970e-01 1.9605096097663829e-01 1.5004540524143178e-01 1.1197707185750198e-01 1.6274902032872413e-01 1.2526365036349330e-01 2.4149541324185766e-01 2.7784386153131763e-01 2.7511753264553301e-01 2.5680824225741017e-01 2.3905121214672098e-01 2.2332540333463019e-01 2.5759558646598901e-01 1.9713313672709570e-01 2.7772141136442624e-01 2.5299261886541669e-01 3.1896284877319081e-01 3.1412253134881429e-01 3.3219650307096243e-01 3.7669401495368271e-01 5.1031447264497742e-01 4.2108778294847049e-01 4.6751392823192039e-01 4.8867544014885450e-01 4.5669593700231315e-01 3.8080375246984954e-01 3.4988592879584646e-01 4.9723385066665349e-01 3.2048356212646822e-01 5.5980911615581164e-01 3.3848865539078132e-01 3.2145394582097175e-01 3.3856492508420138e-01 2.9640205262309716e-01 2.3388482612207168e-01 2.1221839463692954e-01 2.0428072615252829e-01 2.9992780521940560e-01 2.6621890385216312e-01 2.8239000003001935e-01 2.5917246474538969e-01 3.1143539933938125e-01 2.7654247749239935e-01 2.9190093270486805e-01 2.9242622805059648e-01 2.5940575835130308e-01 2.2603062109393579e-01 4.7248159145089625e-04 1.0770999331551337e-03 2.4955476403474793e-03 1.2744793730287045e-02 1.5975724748263899e-02 2.4121818121344160e-02 1.2866944013743491e-02 2.8367695340246541e-02 1.5769771790429585e-02 6.9704370251709613e-02 5.2980503677157890e-02 1.5233630688325803e-01 1.1453426620697239e-01 3.9711503805850444e-02 8.3563439046555346e-02 3.2005130706739451e-02 6.9491149446479578e-02 6.0290981714961972e-02 4.9397114672647374e-02 4.7680143102214592e-02 7.5797169696666347e-02 1.9478628089127669e-03 7.7790073684379079e-03 7.6363463887344323e-03 7.4311142563308740e-03 1.2485597961994410e-01 2.5464430393142545e-01 2.6458393122583379e-01 2.3170550196578621e-01 1.6722243436818807e-01 1.7992170237988730e-01 1.8544925090904968e-01 2.3171054947195113e-01 2.5157667938458922e-01 2.1552188183666476e-01 2.0505587465469621e-01 2.3792232773630365e-01 2.1261922240997361e-01 2.2628527195257928e-01 4.5083649046124868e-01 4.3475198191002606e-01 4.2285105962118463e-01 4.3870564376297150e-01 5.0296809405773435e-01 4.5117562437553715e-01 4.7822709576498934e-01 4.5314268682520464e-01 5.3459294622567366e-01 4.7955145340148808e-01 5.4470029219669502e-01 5.3808174701060807e-01 5.1478062628750354e-01 4.6045072847068502e-01 4.3657783900758940e-01 4.5106014099136515e-01 4.0418570277275817e-01 4.6471055076664269e-01 4.0122048741928851e-01 6.0719543267118592e-01 4.5363343525589706e-01 3.0612324815383535e-01 5.3371473029967964e-01 5.3752035159307243e-01 4.5303676366732842e-01 4.2654523205783346e-01 3.8056507129964973e-01 3.9464537231952002e-01 4.8632647062544543e-01 3.3192991709607245e-01 2.8053610779485305e-01 4.9695499149527933e-01 5.8908819448445193e-01 4.6123163994541394e-01 3.3215951049292680e-01 2.7623442285430860e-01 3.1718410584090384e-01 2.9685053361949681e-01 3.6359314459409808e-01 3.9560285420645314e-01 3.7935437350004342e-01 3.4546211701792173e-01 3.5305563136895179e-01 3.2614315666397886e-01 2.6946141535317325e-01 2.8148974197677801e-01 2.8594493979679486e-01 3.2592753286056397e-01 3.4230834503393248e-01 3.1055336872472361e-01 3.0272144168933990e-01 3.3154222721174564e-01 3.1016570542747834e-01 3.2220082792364169e-01 4.