<?xml version="1.0"?>
<VTKFile type="UnstructuredGrid"  byte_order="LittleEndian">
<UnstructuredGrid>
<Piece NumberOfPoints="1251" NumberOfCells=" 2504">
<Points>
<DataArray type="Float32" NumberOfComponents="3" format="ascii">
32.587383 4.398893 0.000000 32.587383 3.319462 0.000000 31.561823 4.398893 0.000000 31.895844 2.960453 0.000000 32.587383 2.216749 0.000000 31.220133 3.687134 0.000000 30.558296 4.398893 0.000000 15.970908 0.176360 0.000000 15.486821 -0.120538 0.000000 15.945586 0.042676 0.000000 15.550123 -0.199455 0.000000 16.024679 0.091102 0.000000 15.878548 -0.017896 0.000000 15.732000 -0.058798 0.000000 15.567502 -0.071055 0.000000 15.900777 0.113724 0.000000 15.629215 -0.151029 0.000000 15.830647 0.051088 0.000000 31.038326 2.791749 0.000000 31.812317 1.953283 0.000000 32.587383 1.113648 0.000000 30.288504 3.604035 0.000000 29.554770 4.398893 0.000000 15.925358 0.266278 0.000000 15.852268 0.201809 0.000000 15.417450 -0.046901 0.000000 15.502101 0.005296 0.000000 16.006323 -0.037813 0.000000 15.606955 -0.283152 0.000000 15.676575 -0.220776 0.000000 16.086197 0.011254 0.000000 15.926449 -0.086881 0.000000 15.815816 -0.096025 0.000000 15.648184 -0.021572 0.000000 15.746196 -0.158400 0.000000 15.728865 0.027911 0.000000 15.586753 0.057492 0.000000 15.756055 0.161885 0.000000 32.587383 0.010548 0.000000 16.004768 -0.116857 0.000000 15.656957 -0.371099 0.000000 30.525724 2.252112 0.000000 29.859936 2.975999 0.000000 30.644205 1.295454 0.000000 31.899687 0.758256 0.000000 28.551241 4.398893 0.000000 28.551241 3.423705 0.000000 15.809932 0.292239 0.000000 15.888428 0.360067 0.000000 15.416447 0.083266 0.000000 15.342447 0.020993 0.000000 15.490446 0.145538 0.000000 16.079069 -0.129192 0.000000 15.728497 -0.307373 0.000000 15.800036 -0.243648 0.000000 16.154921 -0.062482 0.000000 15.905938 -0.216790 0.000000 16.003218 -0.195902 0.000000 15.671404 0.109689 0.000000 15.575599 0.132652 0.000000 15.706434 0.247042 0.000000 31.899687 -0.737160 0.000000 32.587383 -1.092552 0.000000 15.699813 -0.462741 0.000000 15.775664 -0.396031 0.000000 32.587383 -4.377797 0.000000 17.981497 0.706684 0.000000 16.230247 -0.129459 0.000000 32.587383 -2.195652 0.000000 29.926804 0.864064 0.000000 30.762684 0.338795 0.000000 32.587383 -3.298366 0.000000 29.538483 1.862721 0.000000 28.551241 2.448517 0.000000 30.987337 -0.573036 0.000000 27.547714 4.398893 0.000000 27.547714 3.423705 0.000000 15.689541 0.349990 0.000000 15.774992 0.403446 0.000000 15.860442 0.456901 0.000000 15.427819 0.217918 0.000000 15.347738 0.136168 0.000000 15.262288 0.082713 0.000000 15.564445 0.207811 0.000000 16.065250 -0.272139 0.000000 16.147749 -0.200799 0.000000 15.851516 -0.329321 0.000000 15.965031 -0.296100 0.000000 15.604091 0.296535 0.000000 31.211988 -1.484868 0.000000 31.553961 -2.212065 0.000000 15.735253 -0.557498 0.000000 15.817752 -0.486158 0.000000 15.899899 -0.452238 0.000000 31.561823 -4.377797 0.000000 18.060930 0.676101 0.000000 17.976772 0.807371 0.000000 17.976772 0.605997 0.000000 16.311516 -0.189088 0.000000 16.233164 -0.255614 0.000000 31.895931 -2.939262 0.000000 30.094006 -0.234665 0.000000 29.209402 0.432673 0.000000 31.216215 -3.670250 0.000000 17.962641 0.506196 0.000000 17.939224 1.005212 0.000000 17.939224 0.408156 0.000000 16.398010 -0.240845 0.000000 17.962641 0.907172 0.000000 18.053402 0.884901 0.000000 28.551241 1.473330 0.000000 27.547714 2.448517 0.000000 29.867563 -1.646360 0.000000 26.544188 3.423705 0.000000 26.544188 4.398893 0.000000 15.675605 0.451415 0.000000 15.592584 0.399158 0.000000 15.758626 0.503673 0.000000 15.841647 0.555931 0.000000 15.423002 0.332275 0.000000 15.510585 0.285521 0.000000 15.343520 0.242384 0.000000 15.259319 0.202671 0.000000 15.177478 0.137869 0.000000 16.064547 -0.346978 0.000000 16.146870 -0.294348 0.000000 15.981569 -0.375646 0.000000 30.525724 -2.231016 0.000000 31.038326 -2.770653 0.000000 15.841405 -0.588245 0.000000 15.763053 -0.654771 0.000000 15.919757 -0.521719 0.000000 15.998109 -0.455193 0.000000 30.558296 -4.377797 0.000000 18.137859 0.548338 0.000000 18.144770 0.785501 0.000000 18.242018 0.606113 0.000000 18.050331 0.525483 0.000000 16.318642 -0.292586 0.000000 16.239271 -0.344326 0.000000 29.425325 -0.808126 0.000000 28.105230 0.498142 0.000000 28.551241 -0.477046 0.000000 30.288504 -3.582939 0.000000 18.028511 0.415926 0.000000 17.906731 1.100629 0.000000 18.029043 0.997730 0.000000 18.006235 1.093227 0.000000 18.005527 0.319698 0.000000 17.906731 0.312739 0.000000 16.488972 -0.284275 0.000000 16.411873 -0.347621 0.000000 18.144770 0.977344 0.000000 26.934448 1.960924 0.000000 17.815731 1.280267 0.000000 17.865446 1.192583 0.000000 17.865446 0.220785 0.000000 18.253838 0.902038 0.000000 26.321182 2.448517 0.000000 15.336439 0.376436 0.000000 27.547714 1.473330 0.000000 29.859936 -2.954903 0.000000 29.209402 -2.036891 0.000000 25.540661 4.398893 0.000000 25.540661 3.423705 0.000000 15.666952 0.551803 0.000000 15.584324 0.499561 0.000000 15.504844 0.397077 0.000000 15.749580 0.604044 0.000000 15.832209 0.656285 0.000000 15.419067 0.439877 0.000000 15.253811 0.312995 0.000000 15.171183 0.238354 0.000000 15.088553 0.186113 0.000000 16.080532 -0.447808 0.000000 16.167395 -0.433258 0.000000 15.936780 -0.625670 0.000000 15.859908 -0.689808 0.000000 15.783036 -0.753946 0.000000 16.047762 -0.577819 0.000000 29.554770 -4.377797 0.000000 18.134510 0.433347 0.000000 18.271479 0.474856 0.000000 18.418497 0.787682 0.000000 18.430532 0.611436 0.000000 16.312489 -0.401693 0.000000 16.244078 -0.465360 0.000000 28.551241 -1.452234 0.000000 27.324709 0.498142 0.000000 27.547714 -0.477046 0.000000 18.105242 0.310773 0.000000 17.974585 1.186169 0.000000 18.117216 1.087715 0.000000 18.088774 1.201638 0.000000 17.958813 0.219364 0.000000 18.062712 0.210059 0.000000 16.505150 -0.382645 0.000000 16.583601 -0.318996 0.000000 16.426701 -0.446293 0.000000 18.253838 1.087694 0.000000 26.209679 1.473330 0.000000 17.758022 1.362911 0.000000 17.871048 1.381522 0.000000 17.919147 1.296684 0.000000 17.918350 0.129241 0.000000 17.815731 0.133101 0.000000 18.406464 0.963929 0.000000 25.540661 2.448517 0.000000 15.246918 0.386122 0.000000 15.334306 0.479258 0.000000 18.542557 0.883740 0.000000 24.760141 2.448517 0.000000 26.544188 0.498142 0.000000 28.551241 -3.402609 0.000000 28.551241 -2.427421 0.000000 24.648638 3.423705 0.000000 24.537134 4.398893 0.000000 15.666952 0.630200 0.000000 15.581369 0.598100 0.000000 15.501696 0.503318 0.000000 15.748595 0.704088 0.000000 15.832209 0.757083 0.000000 15.418863 0.542288 0.000000 15.163304 0.333128 0.000000 15.080635 0.290169 0.000000 14.996078 0.227139 0.000000 16.180574 -0.537661 0.000000 15.949276 -0.727701 0.000000 16.026375 -0.664354 0.000000 15.872176 -0.791048 0.000000 15.795077 -0.854394 0.000000 16.145533 -0.616440 0.000000 28.551241 -4.377797 0.000000 18.230902 0.327841 0.000000 18.504343 0.468320 0.000000 18.358641 0.368482 0.000000 18.581741 0.625498 0.000000 16.320759 -0.497462 0.000000 27.213205 -1.452234 0.000000 27.937975 -1.939828 0.000000 26.544188 -0.477046 0.000000 18.194801 0.188040 0.000000 18.039797 1.313748 0.000000 18.211723 1.246858 0.000000 18.020180 0.109345 0.000000 16.519976 -0.474134 0.000000 16.600885 -0.400229 0.000000 16.681065 -0.344704 0.000000 16.439432 -0.538849 0.000000 18.388298 1.130371 0.000000 25.540661 0.498142 0.000000 24.871643 1.473330 0.000000 17.692831 1.439788 0.000000 17.815214 1.461482 0.000000 17.988510 1.431140 0.000000 17.874172 0.035723 0.000000 17.758022 0.050457 0.000000 18.561840 1.093357 0.000000 15.157275 0.423438 0.000000 15.235670 0.524419 0.000000 15.322238 0.571993 0.000000 18.697800 0.784511 0.000000 18.720154 1.012636 0.000000 24.146873 1.960924 0.000000 23.533607 2.448517 0.000000 18.371605 1.307853 0.000000 17.369541 1.676994 0.000000 17.458368 1.629349 0.000000 17.692831 -0.026420 0.000000 17.620726 -0.096854 0.000000 17.542341 1.573594 0.000000 17.620726 1.510222 0.000000 18.954510 0.855293 0.000000 19.885065 1.235774 0.000000 18.954176 1.137593 0.000000 19.192453 0.935216 0.000000 15.877549 -0.891833 0.000000 20.031830 0.867880 0.000000 19.471243 1.048982 0.000000 25.540661 -0.477046 0.000000 27.547714 -4.377797 0.000000 27.436213 -3.402609 0.000000 27.324709 -2.427421 0.000000 23.533607 3.423705 0.000000 23.533607 4.398893 0.000000 15.585008 0.694687 0.000000 15.668511 0.762289 0.000000 15.503420 0.605318 0.000000 15.756101 0.803187 0.000000 15.841647 0.857437 0.000000 15.408806 0.619567 0.000000 15.062533 0.429270 0.000000 14.986181 0.314938 0.000000 14.900635 0.260688 0.000000 16.280170 -0.622330 0.000000 15.955999 -0.828185 0.000000 16.034449 -0.764536 0.000000 16.112900 -0.700888 0.000000 15.799099 -0.955482 0.000000 16.199993 -0.677856 0.000000 18.328316 0.115176 0.000000 18.455168 0.250681 0.000000 18.716454 0.371269 0.000000 18.954844 0.572994 0.000000 16.358887 -0.603564 0.000000 25.875170 -1.452234 0.000000 26.544188 -2.427421 0.000000 18.209011 0.046601 0.000000 18.123983 1.504503 0.000000 18.315956 1.500028 0.000000 18.092525 -0.020355 0.000000 17.943855 -0.080383 0.000000 16.616268 -0.477072 0.000000 16.550322 -0.544829 0.000000 16.698389 -0.419122 0.000000 16.780508 -0.361172 0.000000 16.473593 -0.606048 0.000000 18.543449 1.291963 0.000000 24.537134 0.498142 0.000000 24.760141 -0.477046 0.000000 23.533607 1.473330 0.000000 17.723402 1.549692 0.000000 17.889082 1.588795 0.000000 17.817711 -0.045136 0.000000 18.742840 1.244129 0.000000 15.155366 0.509854 0.000000 15.237352 0.605438 0.000000 15.326365 0.655585 0.000000 22.530081 2.448517 0.000000 22.530081 3.423705 0.000000 22.530081 1.473330 0.000000 17.497648 1.732212 0.000000 17.412121 1.778088 0.000000 17.276646 1.716113 0.000000 17.578503 1.678529 0.000000 17.735849 -0.128896 0.000000 17.542341 -0.160226 0.000000 17.665442 -0.197672 0.000000 17.653975 1.617510 0.000000 20.384056 1.461009 0.000000 19.894371 1.680718 0.000000 19.478920 1.456329 0.000000 18.953840 1.419893 0.000000 19.196182 1.280042 0.000000 19.296368 0.54
[...]
<CellData Scalars="Label">
<DataArray type="Int32" Name="Label" format="ascii">
0 0 0 0 0 0 0 0 0 0 0 0 0 0 0 0 0 0 0 0 0 0 0 0 0 0 0 0 0 0 0 0 0 0 0 0 0 0 0 0 0 0 0 0 0 0 0 0 0 0 0 0 0 0 0 0 0 0 0 0 0 0 0 0 0 0 0 0 0 0 0 0 0 0 0 0 0 0 0 0 0 0 0 0 0 0 0 0 0 0 0 0 0 0 0 0 0 0 0 0 0 0 0 0 0 0 0 0 0 0 0 0 0 0 0 0 0 0 0 0 0 0 0 0 0 0 0 0 0 0 0 0 0 0 0 0 0 0 0 0 0 0 0 0 0 0 0 0 0 0 0 0 0 0 0 0 0 0 0 0 0 0 0 0 0 0 0 0 0 0 0 0 0 0 0 0 0 0 0 0 0 0 0 0 0 0 0 0 0 0 0 0 0 0 0 0 0 0 0 0 0 0 0 0 0 0 0 0 0 0 0 0 0 0 0 0 0 0 0 0 0 0 0 0 0 0 0 0 0 0 0 0 0 0 0 0 0 0 0 0 0 0 0 0 0 0 0 0 0 0 0 0 0 0 0 0 0 0 0 0 0 0 0 0 0 0 0 0 0 0 0 0 0 0 0 0 0 0 0 0 0 0 0 0 0 0 0 0 0 0 0 0 0 0 0 0 0 0 0 0 0 0 0 0 0 0 0 0 0 0 0 0 0 0 0 0 0 0 0 0 0 0 0 0 0 0 0 0 0 0 0 0 0 0 0 0 0 0 0 0 0 0 0 0 0 0 0 0 0 0 0 0 0 0 0 0 0 0 0 0 0 0 0 0 0 0 0 0 0 0 0 0 0 0 0 0 0 0 0 0 0 0 0 0 0 0 0 0 0 0 0 0 0 0 0 0 0 0 0 0 0 0 0 0 0 0 0 0 0 0 0 0 0 0 0 0 0 0 0 0 0 0 0 0 0 0 0 0 0 0 0 0 0 0 0 0 0 0 0 0 0 0 0 0 0 0 0 0 0 0 0 0 0 0 0 0 0 0 0 0 0 0 0 0 0 0 0 0 0 0 0 0 0 0 0 0 0 0 0 0 0 0 0 0 0 0 0 0 0 0 0 0 0 0 0 0 0 0 0 0 0 0 0 0 0 0 0 0 0 0 0 0 0 0 0 0 0 0 0 0 0 0 0 0 0 0 0 0 0 0 0 0 0 0 0 0 0 0 0 0 0 0 0 0 0 0 0 0 0 0 0 0 0 0 0 0 0 0 0 0 0 0 0 0 0 0 0 0 0 0 0 0 0 0 0 0 0 0 0 0 0 0 0 0 0 0 0 0 0 0 0 0 0 0 0 0 0 0 0 0 0 0 0 0 0 0 0 0 0 0 0 0 0 0 0 0 0 0 0 0 0 0 0 0 0 0 0 0 0 0 0 0 0 0 0 0 0 0 0 0 0 0 0 0 0 0 0 0 0 0 0 0 0 0 0 0 0 0 0 0 0 0 0 0 0 0 0 0 0 0 0 0 0 0 0 0 0 0 0 0 0 0 0 0 0 0 0 0 0 0 0 0 0 0 0 0 0 0 0 0 0 0 0 0 0 0 0 0 0 0 0 0 0 0 0 0 0 0 0 0 0 0 0 0 0 0 0 0 0 0 0 0 0 0 0 0 0 0 0 0 0 0 0 0 0 0 0 0 0 0 0 0 0 0 0 0 0 0 0 0 0 0 0 0 0 0 0 0 0 0 0 0 0 0 0 0 0 0 0 0 0 0 0 0 0 0 0 0 0 0 0 0 0 0 0 0 0 0 0 0 0 0 0 0 0 0 0 0 0 0 0 0 0 0 0 0 0 0 0 0 0 0 0 0 0 0 0 0 0 0 0 0 0 0 0 0 0 0 0 0 0 0 0 0 0 0 0 0 0 0 0 0 0 0 0 0 0 0 0 0 0 0 0 0 0 0 0 0 0 0 0 0 0 0 0 0 0 0 0 0 0 0 0 0 0 0 0 0 0 0 0 0 0 0 0 0 0 0 0 0 0 0 0 0 0 0 0 0 0 0 0 0 0 0 0 0 0 0 0 0 0 0 0 0 0 0 0 0 0 0 0 0 0 0 0 0 0 0 0 0 0 0 0 0 0 0 0 0 0 0 0 0 0 0 0 0 0 0 0 0 0 0 0 0 0 0 0 0 0 0 0 0 0 0 0 0 0 0 0 0 0 0 0 0 0 0 0 0 0 0 0 0 0 0 0 0 0 0 0 0 0 0 0 0 0 0 0 0 0 0 0 0 0 0 0 0 0 0 0 0 0 0 0 0 0 0 0 0 0 0 0 0 0 0 0 0 0 0 0 0 0 0 0 0 0 0 0 0 0 0 0 0 0 0 0 0 0 0 0 0 0 0 0 0 0 0 0 0 0 0 0 0 0 0 0 0 0 0 0 0 0 0 0 0 0 0 0 0 0 0 0 0 0 0 0 0 0 0 0 0 0 0 0 0 0 0 0 0 0 0 0 0 0 0 0 0 0 0 0 0 0 0 0 0 0 0 0 0 0 0 0 0 0 0 0 0 0 0 0 0 0 0 0 0 0 0 0 0 0 0 0 0 0 0 0 0 0 0 0 0 0 0 0 0 0 0 0 0 0 0 0 0 0 0 0 0 0 0 0 0 0 0 0 0 0 0 0 0 0 0 0 0 0 0 0 0 0 0 0 0 0 0 0 0 0 0 0 0 0 0 0 0 0 0 0 0 0 0 0 0 0 0 0 0 0 0 0 0 0 0 0 0 0 0 0 0 0 0 0 0 0 0 0 0 0 0 0 0 0 0 0 0 0 0 0 0 0 0 0 0 0 0 0 0 0 0 0 0 0 0 0 0 0 0 0 0 0 0 0 0 0 0 0 0 0 0 0 0 0 0 0 0 0 0 0 0 0 0 0 0 0 0 0 0 0 0 0 0 0 0 0 0 0 0 0 0 0 0 0 0 0 0 0 0 0 0 0 0 0 0 0 0 0 0 0 0 0 0 0 0 0 0 0 0 0 0 0 0 0 0 0 0 0 0 0 0 0 0 0 0 0 0 0 0 0 0 0 0 0 0 0 0 0 0 0 0 0 0 0 0 0 0 0 0 0 0 0 0 0 0 0 0 0 0 0 0 0 0 0 0 0 0 0 0 0 0 0 0 0 0 0 0 0 0 0 0 0 0 0 0 0 0 0 0 0 0 0 0 0 0 0 0 0 0 0 0 0 0 0 0 0 0 0 0 0 0 0 0 0 0 0 0 0 0 0 0 0 0 0 0 0 0 0 0 0 0 0 0 0 0 0 0 0 0 0 0 0 0 0 0 0 0 0 0 0 0 0 0 0 0 0 0 0 0 0 0 0 0 0 0 0 0 0 0 0 0 0 0 0 0 0 0 0 0 0 0 0 0 0 0 0 0 0 0 0 0 0 0 0 0 0 0 0 0 0 0 0 0 0 0 0 0 0 0 0 0 0 0 0 0 0 0 0 0 0 0 0 0 0 0 0 0 0 0 0 0 0 0 0 0 0 0 0 0 0 0 0 0 0 0 0 0 0 0 0 0 0 0 0 0 0 0 0 0 0 0 0 0 0 0 0 0 0 0 0 0 0 0 0 0 0 0 0 0 0 0 0 0 0 0 0 0 0 0 0 0 0 0 0 0 0 0 0 0 0 0 0 0 0 0 0 0 0 0 0 0 0 0 0 0 0 0 0 0 0 0 0 0 0 0 0 0 0 0 0 0 0 0 0 0 0 0 0 0 0 0 0 0 0 0 0 0 0 0 0 0 0 0 0 0 0 0 0 0 0 0 0 0 0 0 0 0 0 0 0 0 0 0 0 0 0 0 0 0 0 0 0 0 0 0 0 0 0 0 0 0 0 0 0 0 0 0 0 0 0 0 0 0 0 0 0 0 0 0 0 0 0 0 0 0 0 0 0 0 0 0 0 0 0 0 0 0 0 0 0 0 0 0 0 0 0 0 0 0 0 0 0 0 0 0 0 0 0 0 0 0 0 0 0 0 0 0 0 0 0 0 0 0 0 0 0 0 0 0 0 0 0 0 0 0 0 0 0 0 0 0 0 0 0 0 0 0 0 0 0 0 0 0 0 0 0 0 0 0 0 0 0 0 0 0 0 0 0 0 0 0 0 0 0 0 0 0 0 0 0 0 0 0 0 0 0 0 0 0 0 0 0 0 0 0 0 0 0 0 0 0 0 0 0 0 0 0 0 0 0 0 0 0 0 0 0 0 0 0 0 0 0 0 0 0 0 0 0 0 0 0 0 0 0 0 0 0 0 0 0 0 0 0 0 0 0 0 0 0 0 0 0 0 0 0 0 0 0 0 0 0 0 0 0 0 0 0 0 0 0 0 0 0 0 0 0 0 0 0 0 0 0 0 0 0 0 0 0 0 0 0 0 0 0 0 0 0 0 0 0 0 0 0 0 0 0 0 0 0 0 0 0 0 0 0 0 0 0 0 0 0 0 0 0 0 0 0 0 0 0 0 0 0 0 0 0 0 0 0 0 0 0 0 0 0 0 0 0 0 0 0 0 0 0 0 0 0 0 0 0 0 0 0 0 0 0 0 0 0 0 0 0 0 0 0 0 0 0 0 0 0 0 0 0 0 0 0 0 0 0 0 0 0 0 0 0 0 0 0 0 0 0 0 0 0 0 0 0 0 0 0 0 0 0 0 0 0 0 0 0 0 0 0 0 0 0 0 0 0 0 0 0 0 0 0 0 0 0 0 0 0 0 0 0 0 0 0 0 0 0 0 0 0 0 0 0 0 0 0 0 0 0 0 0 0 0 0 0 0 0 0 0 0 0 0 0 0 0 0 0 0 0 0 0 0 0 0 0 0 0 0 0 0 0 0 0 0 0 0 0 0 0 0 0 0 0 0 0 0 0 0 0 0 0 0 0 0 0 0 0 0 0 0 0 0 0 0 0 0 0 0 0 0 0 0 0 0 0 0 0 0 0 0 0 0 0 0 0 0 0 0 0 0 0 0 0 0 0 0 0 0 0 0 0 0 0 0 0 0 0 0 0 0 0 0 0 0 0 0 0 0 0 0 0 0 0 0 0 0 0 0 0 0 0 0 0 0 0 0 0 0 0 0 4 4 4 4 4 4 4 4 4 4 4 4 4 4 4 4 4 4 4 4 4 4 4 4 4 4 4 4 4 4 4 4 4 4 4 4 4 4 4 4 4 4 4 4 4 4 4 4 4 4 4 4 4 4 4 4 4 4 4 4 4 4 4 4 4 4 4 4 4 4 4 4 4 4 4 4 4 4 4 4 4 4 4 4 4 4 4 4 4 4 4 4 4 4 4 4 4 4 4 4 4 4 4 4 4 4 4 4 4 4 4 4 4 4 4 4 4 4 4 4 4 4 4 4 4 4 4 4 4 4 4 4 4 4 4 4 4 4 4 4 4 4 4 4 4 4 3 3 3 3 3 3 3 3 3 3 3 3 3 3 3 3 3 3 3 3 3 3 3 3 3 3 3 3 3 3 3 3 3 3 3 3 3 3 3 3 3 3 3 3 3 3 3 3 3 3 3 3 3 3 3 3 3 3 3 3 3 3 3 3 2 2 2 2 2 2 2 2 1 1 1 1 1 1 1 1 
</DataArray>
<DataArray type="Float64" Name="u" NumberOfComponents="1" format="ascii">
1.7190772493131980e-02 5.8374078085461412e-02 7.7305278319508272e-02 4.8459027258630952e-02 6.9519734325189292e-02 1.0065985516385266e-01 1.1185754680824136e-01 1.6879028602553448e-01 1.7053603073023640e-01 1.1780817450064010e-01 1.2843128522228575e-01 7.0316531885148637e-02 6.6876445027693868e-02 2.1905940100290766e-01 1.1447491050946884e-01 3.0209890282188367e-01 1.8199725045821802e-01 1.9748805022814150e-01 1.5781434431520550e-01 1.4993304487553824e-01 7.4334613268922448e-02 1.0285726870460271e-01 9.7592805081769513e-02 1.2958468647345284e-01 2.5713524919345082e-01 1.6078307531950947e-01 1.9561414428253926e-01 1.6575660435880568e-01 1.2943502260900819e-01 2.1313407652802707e-01 2.7301594629002091e-01 2.1964725165577284e-01 1.4237073283974244e-01 1.2344021634939038e-01 1.1731376169756957e-01 8.8649121600151398e-02 8.4911855519665985e-02 4.6160591384869075e-02 5.5774577311533914e-03 6.0582491161870644e-02 5.5475438472364649e-02 3.8727539935998812e-02 5.9365888272337859e-02 5.7711089121929598e-02 2.1287250455271547e-02 7.1501321747328886e-02 7.1151531127925743e-02 5.0646085770545385e-02 4.4530613282870460e-02 1.4440305926462220e-02 1.9968320607757991e-02 2.0756313465513106e-02 9.7065232214662931e-03 7.5078057226811209e-03 3.9203536313123770e-04 1.7027074963933925e-03 5.7070869703650162e-02 2.3824279227849937e-02 3.4312387799002503e-02 1.0393614790022657e-02 6.4379271506623953e-02 5.5148267420011665e-02 6.1016250925916574e-02 3.9872680404322507e-02 6.7170051703472258e-03 2.2230509658178865e-03 1.6958485756296271e-02 1.5466102861384824e-02 4.4537547660922189e-02 4.6241556975619248e-02 4.5168093437085444e-02 8.8796550436090832e-02 7.9107178877312292e-02 4.2676028786938561e-02 2.4492748280100722e-02 1.7780972176278269e-02 7.1421185750223191e-03 4.3137162825629065e-02 5.5525967876200302e-02 5.2563000457642395e-02 1.1329058856902330e-02 7.7394448739017130e-02 8.7979548574047745e-02 7.8599242783494006e-02 6.4817267696383560e-02 3.7980438953456486e-02 8.8638187036464561e-02 2.9911988481012421e-02 8.0479777515382211e-02 8.5276758471952041e-02 9.1502961891687773e-02 3.4973026792925771e-02 8.5888673920467284e-02 7.9994312411216018e-02 8.9488106440759718e-02 9.1424576340148084e-02 6.7418712105692655e-02 7.2687445778062479e-02 7.8499100137524203e-02 2.2459488385142022e-02 5.5948682956712813e-02 6.2922708860550902e-02 7.4445043555078860e-02 8.7705597184390610e-02 7.7564657143585944e-02 4.0154548895678446e-02 1.9400912400256556e-02 6.5492944107617884e-02 6.8224050872980946e-02 8.3223929961866394e-02 1.4404214320920665e-02 7.1760600216339759e-02 1.7445673776842731e-02 6.6941876429499697e-02 8.2162093026919597e-02 1.6018427884739662e-02 2.6817701800342469e-02 7.6028887431417877e-02 6.4434639340963967e-02 3.8669077477811925e-02 5.9368591819268283e-02 3.2875788087371474e-02 2.2171835883713645e-02 8.8138547742913381e-02 9.0067714685911349e-02 8.9024449604132722e-02 6.8760038990992381e-02 8.3759195380883195e-02 7.7363761737560668e-02 7.7832905648194145e-02 8.3193163887284441e-02 8.0892618242937239e-02 6.0546797206360976e-02 8.5078643001154336e-02 6.7125992731137230e-02 8.9004575771553407e-02 7.4539387227450918e-02 1.2459532266438100e-02 2.0134967598111821e-02 7.9300662787233203e-02 4.0081947195245458e-02 5.0206067007729269e-02 8.2865609238814142e-03 4.9407173596958939e-02 4.0922654593347416e-02 7.1213799938823060e-03 3.5825656736211173e-02 4.9098388290544664e-02 3.5644731238405752e-02 4.7271511680389480e-03 3.4918104911097231e-02 1.2545455423265173e-02 1.7881654367285685e-02 1.1261395805523268e-01 6.8697675483631745e-02 3.0937782758746243e-02 5.6308223740143173e-02 2.9923918949716292e-02 2.4395577779036413e-02 1.2287824220783491e-01 9.3461377425163625e-02 1.1777357501217176e-01 3.8378745993466246e-02 2.2376153126944825e-02 7.1502817953418951e-02 7.3000710285166873e-02 5.5032239938349783e-02 1.6056515370880188e-02 1.9951989483229200e-02 6.4674856336664588e-02 3.3456365955623318e-02 2.2484018746071386e-03 1.7750361136729090e-03 1.6884427141774794e-02 6.6520130897353646e-02 5.7442233106108825e-02 4.6297612492250471e-02 2.4930989517364621e-02 2.4370694815482444e-02 4.5736889166475128e-02 5.4626440002543158e-02 6.7335649586135554e-02 3.5534900462127900e-02 4.4484848815059680e-02 5.7110993259134782e-02 5.9460562521242238e-02 7.0480113880515949e-02 1.9593670486825990e-02 2.8452335571749400e-02 2.2754024380060630e-02 1.4325430601690788e-02 5.6415906992781262e-02 5.0163570773813726e-02 6.0173413718014115e-02 6.1764598815230054e-02 4.4803008272851483e-02 1.9137521178221768e-02 1.8074684144119310e-03 7.0960907316060099e-04 2.7858281432628466e-02 6.0241106554978857e-02 2.7899860478480719e-02 1.3535486104054896e-02 3.5791462202879624e-03 7.3090949770832905e-04 6.1509531288130109e-02 7.8982778186434899e-02 5.5136687313486560e-02 9.2589321262420338e-02 1.2192757423108869e-01 9.6086987530636173e-02 4.8122299927617893e-02 4.2802570628154180e-02 6.8489999482728880e-02 1.0941670442369753e-02 4.4760675623153057e-02 1.2976333063240539e-02 8.7733780654467523e-03 1.0733351420399856e-01 4.6305833614136815e-02 6.9339662137590047e-02 7.1671731034344516e-02 6.4642664079871473e-02 5.4047618648179668e-02 6.5897465900924712e-02 7.3786773673356121e-02 6.7194998894347602e-02 6.8857479382767400e-02 6.2623275081361396e-02 7.2621090429372662e-02 6.3167305215100000e-02 6.5274492164514808e-02 9.0806326673061474e-02 8.0766179587427045e-02 8.2881511988897344e-02 4.1222538053613721e-02 2.6194047877938234e-02 8.9496668119116041e-03 1.0283006766617647e-02 1.9208904903451765e-04 1.9789375996054900e-02 5.8121757069502691e-02 3.1153347554471911e-02 8.4321871111386996e-03 9.8867293066790055e-03 1.8251132557529245e-02 7.1150149795953400e-03 1.8555604209497319e-02 5.6884786047398123e-03 2.4050371200080019e-02 2.3968174139336607e-02 9.8105910364540815e-03 1.9970193025319338e-02 3.1913706466075087e-01 3.1697476164615573e-01 3.2000442580584409e-01 3.8571996768789829e-01 9.6861907025655253e-02 2.1117830359305220e-01 1.5206221039927223e-01 1.8301368298468568e-02 6.1048677901709836e-01 5.2314213944537824e-01 4.2942778605754184e-01 4.4413591878101344e-02 2.1426936136017583e-01 2.2863914866411625e-01 7.8311736835921214e-02 3.3261594567765049e-02 1.0298732727769538e-01 4.1268495329608912e-02 7.2473622755715006e-02 9.3539491001445096e-02 4.7087650138362705e-02 5.6204168561106549e-02 6.7599170247085349e-01 9.6640149648985085e-01 1.0439854813786202e+00 2.2339996710723356e-02 1.2945439982840767e-01 2.1977361014797386e-01 2.3065723656246755e-02 4.4512379552437357e-02 1.9781691496595122e+00 1.6354564345391995e-01 8.2517479118988449e-02 1.5721652380577097e-01 7.3871843692517536e-01 1.0619713591027575e+00 9.3982217556117864e-01 1.4045371306243020e+00 1.2098619440293557e+00 1.3944717349061948e+00 7.3841976003934207e-01 5.9358351346205784e-01 5.9645365748925649e-01 6.2794927336747286e-01 9.1795019008215206e-01 7.7869000868799487e-01 7.9770208623506300e-01 6.6690822198105279e-02 7.7741502975227195e-02 1.6345768001709404e-01 1.5315635124836557e-01 1.7380817096469547e-01 2.8095498318726447e-01 2.1040219741426605e-01 3.0684836028971452e-01 2.3943988100761296e-01 3.5876092260164527e-01 1.7670777277182914e-01 6.6632056325108713e-02 6.0548783274659304e-02 3.5567225129825630e-02 4.0829105394135048e-02 1.1608564828992886e-01 7.6514513479933099e-02 9.4153425147179143e-02 8.8256930139886058e-02 1.2661456199643628e-01 7.4818392680071150e-02 4.7649428963730214e-02 4.2268156254471757e-02 5.8549764736541415e-02 7.3312462156901501e-02 9.0469522170575023e-02 6.8696379230019533e-02 7.4160065571769518e-02 6.8703188033618925e-02 7.9499824897959342e-02 8.8392852014021778e-02 1.0115637797170471e-01 1.0550816331639130e-01 1.2729358775881150e-01 1.0327064284850895e-01 6.5000814449352268e-02 7.2540630872198517e-02 6.0638178110813193e-02 6.3330497180411310e-02 7.6953716332737454e-02 5.6368159625406117e-02 7.2647039368301214e-01 3.9687170562245622e-01 4.8135409596596224e-01 5.6619743235414155e-01 4.6312485730347563e-01 3.4977020235908085e-01 2.3471767822332862e-01 2.3900417634361251e-01 2.0865809252492132e-01 1.4768898387785678e-01 1.3281218570984374e-01 1.1978343092165505e-01 1.4515320420001454e-01 1.0669172338429462e+00 8.5258537867411111e-01 8.9664111887614961e-01 5.6801736832052740e-01 4.4782721535194742e-01 4.9375842307478013e-01 7.9761109375838180e-01 8.0893440939859640e-01 4.2583532607076985e-01 4.3125610516964608e-01 3.4320681035052070e-01 1.3187679462233892e-01 2.1860599896639965e-01 2.5823352827689838e-01 4.3252209661188923e-01 5.7546207019486639e-01 4.0885455176310820e-01 1.6263467042622493e-01 1.7353948660675669e-01 1.5646703039181653e-01 2.1012358256589639e-01 2.0784382443012067e-01 1.1237860041294398e-01 2.8940190227790075e-01 4.6983343633131586e-01 6.1020710456988758e-01 2.7740232204218346e-01 2.8123471846445097e-01 2.2551341643256251e-01 2.1372401636458932e-01 3.0027909972411848e-01 1.1674904273383915e-01 3.4671328553535058e-01 1.4560451867830432e-01 1.5746031704152974e-01 2.9649581153172538e-01 1.6824461415202607e-01 1.7031653202369662e-01 3.8793138301242869e-02 8.0450101582160882e-01 1.0338112415522246e-01 5.1427531087107840e-02 8.5777082880783936e-02 4.6364874938987326e-02 8.9100615583163401e-02 5.6077931452125987e-02 5.5352219987376119e-02 1.0851941077314402e-01 1.2877189211396525e-01 1.3262156831725480e-01 1.8419429454553654e-01 1.0881948371053511e+00 5.3029028974554582e-02 8.4809378009873274e-02 4.3511057776605834e-02 9.3843812875132770e-02 2.6975757207914883e-02 1.2144454807682925e-01 7.8014753210145726e-01 9.6824349104855323e-01 8.7651839860029146e-01 1.0068390812038770e+00 8.9589221414841957e-01 4.9298302925752269e-02 2.4293839383760826e-02 2.1578658960193758e-01 1.8075585947841810e-02 7.3303052445593361e-02 1.3916892879337509e-01 8.5296767157139922e-02 1.2174210444849529e-01 1.5062131660263642e-01 1.7417804130286998e-01 3.1728179566562337e-01 2.3850946505721915e-01 2.6628302874572785e-01 1.7967414347043759e-01 8.4776948383821188e-02 4.1841238675856152e-02 8.9218433896501370e-01 8.9956834268558250e-01 9.5671808271479297e-01 9.3226912497536452e-01 8.2939106865018597e-01 8.4544339073751162e-01 7.9470800408531306e-01 9.3135485537936602e-01 8.7522593453558062e-01 8.9521843208279162e-01 8.6418664000921008e-01 2.0814911952401708e-02 9.8481305038899278e-02 3.7576191163882521e-02 3.1264610245848687e-02 2.3124473926172492e-01 1.8448347518096850e-01 2.4336236728711882e-01 2.2535723739829117e-01 3.2317377124615809e-01 1.5931377706348848e-01 1.1090382781575261e-01 1.6792282706325018e-01 1.0213049185424328e-01 2.8293555901640274e-02 2.9044850885605836e-02 2.1213440230617869e-01 1.0573553015899428e-01 2.9116646657117839e-02 2.7583834199436247e-02 2.8830046163780798e-01 1.8128781634097002e-01 2.6596657041447003e-01 1.8458285612362241e-01 3.0502595492485751e-01 2.7764832328397832e-01 2.7183488943784190e-01 7.2224307931480014e-01 6.2342564699381053e-01 6.1889707484153367e-01 5.8615467240869279e-01 7.6517685304080563e-01 6.4903024401279197e-01 6.7939130265723990e-01 7.4501181933679250e-01 5.4575205758331324e-01 8.0946253815323466e-01 6.9237332988798461e-01 6.9212392346165075e-01 4.3593971087047684e-01 4.4596380650506973e-01 3.5571528566478283e-01 9.8791778496247584e-01 7.7172951758960551e-01 5.9958149840077446e-01 6.0702907085402724e-01 4.6267874142198179e-01 3.6236078472246458e-01 5.2246410365229279e-01 4.0011544905323831e-01 4.2322953935565444e-01 3.5230688351080353e-01 2.8139063480774973e-01 6.8317304791367195e-01 6.2690286518480365e-01 6.4381225727920777e-01 4.7933052227740425e-01 1.0061542835069821e+00 8.9812439761165752e-01 9.1890696134138983e-01 6.6482530831578135e-01 1.1649320607104841e+00 1.0625299094900148e-02 1.8038082614639264e-02 6.6396613654908388e-03 1.4488637039662455e-01 8.7138742183819257e-02 5.0203059088700219e-01 3.0375908840812205e-01 2.9985070356188626e-01 1.2014433697200178e-01 4.7136092106744309e-01 1.1659104498674382e+00 2.4902135320892588e-01 2.0473406974900410e-01 1.4942096527030974e-01 1.8448847326742640e-01 1.9939603636079822e-01 7.6018277953588909e-01 8.2297356418888357e-01 8.8924113571540375e-01 7.4490942835443485e-01 6.7151060333973611e-01 7.7036223856925035e-01 8.1112397067743491e-01 8.5812960896512902e-01 8.3432783348582551e-01 4.9645439380172351e-02 3.4153068969825791e-02 1.5547150623045057e-02 1.4062754835118145e-02 9.1152301733117919e-02 3.8986993305805795e-01 4.9523935255490203e-01 7.4509055712219041e-01 8.5641210446140148e-01 9.0135636433686539e-01 6.5517008861297765e-01 4.9202791845817573e-01 4.5957983830899107e-01 5.9142718509226155e-01 9.6576983310353359e-01 7.8367687462838465e-01 7.9090573664310404e-01 6.8129172983562747e-01 7.8079494978973152e-01 8.8659074110389058e-01 8.2561564598578963e-01 5.0181746180275899e-01 8.7454009153926249e-01 4.5415292030390320e-01 9.8878737699248831e-01 1.0112505099900100e+00 9.9777523329190032e-01 1.0452958684264264e+00 1.1496942222307029e+00 9.8022040475611205e-01 1.1022211185982467e+00 1.1559749570210904e+00 1.2154489212944763e+00 1.3591724319420333e+00 1.2613118971103823e+00 1.0421060319102211e+00 3.5737275962794557e-01 2.3055898794599949e-01 3.6350465152213940e-01 3.0024087446230835e-01 4.0108605562936794e-01 3.4545068862161560e-01 3.1239791388707683e-01 1.9296126477784958e-01 2.7334575390276439e-01 2.7547210875800243e-01 3.0751449944370401e-01 1.5881380377512760e-01 2.0584183312659465e-01 3.6551567634234128e-01 2.8851588206022349e-01 8.5644979170644631e-01 5.2985887066428228e-01 7.7042429433853044e-01 4.0219807874445151e-01 4.2054640851400193e-01 5.6039762601091381e-01 3.4318147418531519e-01 2.6111649128735193e-01 3.7190975490884126e-01 2.1042108655733788e-01 5.4915896741882364e-01 3.6197628804132564e-01 4.7561652475835814e-01 1.8683534090833104e-01 7.2259009879362818e-02 1.2543022946131696e-01 1.1897092785083666e-01 1.3198204115075335e-01 3.9001732535776401e-01 5.3443103477838494e-01 2.6097342619726005e-01 4.7862265106138391e-01 4.1607513147879194e-01 5.0068043678324048e-01 4.2687876568901684e-01 4.5058778155398960e-01 3.4332973724720617e-01 4.1287184650281222e-01 5.2544316394113277e-01 5.1881211155179252e-01 5.6393495576559360e-01 5.7318333955073730e-01 6.7750652157141245e-01 1.4804741457567216e-01 8.8393313940766327e-01 8.0415865075134846e-02 1.2942517856096999e-01 1.0218714469442777e-01 6.2600978775047042e-02 6.3166739672707486e-02 2.2900063786499204e-02 8.9928656430791598e-01 2.4918843814819978e-02 6.1262252959635400e-03 2.9273457912869952e-02 3.8649664456367729e-02 5.7254411490448118e-02 9.3362720610285829e-03 4.4179038526177342e-02 6.5364787403460967e-02 9.0704419383909510e-02 1.1134122828064424e-01 1.0102337956625607e-01 1.6752818497239558e-01 2.1299484780418505e-02 6.3858742259192247e-02 8.3790825069708849e-02 1.0310240014137926e+00 1.0387452220000764e+00 1.0452892498280242e+00 1.0333531397459290e+00 1.0337376930503459e+00 1.0564640541639938e+00 1.0648397361