<?xml version="1.0"?>
<VTKFile type="UnstructuredGrid"  byte_order="LittleEndian">
<UnstructuredGrid>
<Piece NumberOfPoints="828" NumberOfCells=" 1656">
<Points>
<DataArray type="Float32" NumberOfComponents="3" format="ascii">
0.928766 -4.169310 0.000000 0.928766 -3.073266 0.000000 1.949441 -4.169310 0.000000 0.928766 -1.944522 0.000000 2.295037 -3.455989 0.000000 1.624837 -2.714566 0.000000 0.928766 4.798280 0.000000 0.928766 0.314485 0.000000 0.928766 3.702236 0.000000 0.928766 1.443989 0.000000 0.928766 2.573492 0.000000 2.939835 -4.169310 0.000000 0.928766 -0.815019 0.000000 1.967632 -1.976005 0.000000 3.213403 -3.368220 0.000000 2.474706 -2.542687 0.000000 1.949441 4.798280 0.000000 1.798197 1.096933 0.000000 1.798197 -0.467963 0.000000 1.624837 3.343535 0.000000 1.713394 2.320851 0.000000 2.939835 4.798280 0.000000 3.930229 -4.169310 0.000000 2.310427 -1.237445 0.000000 2.984821 -1.994948 0.000000 4.285051 -3.455414 0.000000 3.569005 -2.671518 0.000000 2.474706 3.719396 0.000000 2.570520 -0.074002 0.000000 2.538957 0.831795 0.000000 2.653222 1.866415 0.000000 2.984821 2.623918 0.000000 3.213403 3.997190 0.000000 3.930229 4.798280 0.000000 3.342843 0.319958 0.000000 4.920623 -4.169310 0.000000 3.535629 -1.217937 0.000000 3.924607 -1.974816 0.000000 5.117758 -3.455414 0.000000 4.313585 -2.731695 0.000000 3.640736 3.360665 0.000000 3.761778 1.507854 0.000000 3.975366 2.348089 0.000000 4.285051 4.084383 0.000000 4.920623 4.798280 0.000000 4.094824 0.738431 0.000000 4.146729 -0.191878 0.000000 5.117758 4.084383 0.000000 5.911017 -4.169310 0.000000 4.734825 -1.198842 0.000000 5.112301 -1.955904 0.000000 5.911017 -3.172911 0.000000 4.775877 3.083074 0.000000 4.846805 1.156903 0.000000 4.950309 2.076604 0.000000 5.911017 4.798280 0.000000 5.028873 0.310403 0.000000 4.881849 -0.444219 0.000000 6.021061 3.801881 0.000000 5.911017 -2.176512 0.000000 5.745055 0.063344 0.000000 6.901411 -4.169310 0.000000 5.911017 -1.180113 0.000000 6.901411 -3.172911 0.000000 6.901411 -2.176512 0.000000 5.911017 2.805482 0.000000 5.911017 0.812684 0.000000 5.911017 1.809083 0.000000 6.901411 4.798280 0.000000 6.901411 2.805482 0.000000 6.901411 3.801881 0.000000 6.461236 -0.183714 0.000000 7.891805 -4.169310 0.000000 6.901411 -1.180113 0.000000 8.001848 -3.172911 0.000000 7.671717 -2.176512 0.000000 6.901411 1.809083 0.000000 7.341586 0.812684 0.000000 7.891805 3.801881 0.000000 7.891805 4.798280 0.000000 7.891805 2.805482 0.000000 7.451630 -0.183714 0.000000 8.882199 -4.169310 0.000000 7.891805 -1.180113 0.000000 8.882199 -2.176512 0.000000 8.882199 -3.172911 0.000000 7.891805 1.809083 0.000000 8.111893 0.812684 0.000000 8.772155 3.801881 0.000000 8.882199 4.798280 0.000000 8.882199 2.805482 0.000000 8.331980 -0.183714 0.000000 9.762549 -3.172911 0.000000 9.872593 -4.169310 0.000000 8.882199 -1.180113 0.000000 9.652505 -2.176512 0.000000 9.212330 1.809083 0.000000 8.882199 0.812684 0.000000 9.872593 3.801881 0.000000 9.872593 4.798280 0.000000 9.872593 2.805482 0.000000 9.102286 -0.183715 0.000000 10.862987 -3.172911 0.000000 10.642900 -2.176512 0.000000 10.862987 -4.169310 0.000000 9.872593 -1.180113 0.000000 10.202724 1.809083 0.000000 9.872593 0.812684 0.000000 10.862987 3.801881 0.000000 10.862987 2.805482 0.000000 10.862987 4.798280 0.000000 9.872593 -0.183714 0.000000 10.532855 -0.681914 0.000000 11.853380 -4.169310 0.000000 11.853380 -3.172911 0.000000 11.853380 -2.176512 0.000000 11.193118 -1.180113 0.000000 10.862987 0.812684 0.000000 11.193118 1.809083 0.000000 11.743337 3.801881 0.000000 12.073468 2.805482 0.000000 11.853380 4.798280 0.000000 11.303162 -0.183714 0.000000 11.908402 -0.681914 0.000000 12.843775 -4.169310 0.000000 12.623687 -2.176512 0.000000 12.843775 -3.172911 0.000000 12.513643 -1.180113 0.000000 11.853380 0.812684 0.000000 12.183512 1.809083 0.000000 12.953818 3.801881 0.000000 12.843775 4.798280 0.000000 13.063862 2.805482 0.000000 12.403600 -0.183714 0.000000 13.834168 -4.169310 0.000000 13.614081 -2.176512 0.000000 13.834168 -3.172911 0.000000 13.393993 -0.183714 0.000000 13.834168 -1.180113 0.000000 12.843775 0.812684 0.000000 13.173905 1.809083 0.000000 13.834168 2.805482 0.000000 13.944212 3.801881 0.000000 13.834168 4.798280 0.000000 14.824562 -4.169310 0.000000 14.824562 -3.172911 0.000000 14.824562 -2.176512 0.000000 14.384387 -0.183714 0.000000 13.834168 0.812684 0.000000 14.659496 -1.180113 0.000000 13.999234 1.809083 0.000000 14.824562 1.809083 0.000000 15.044650 2.805482 0.000000 14.934607 3.801881 0.000000 14.824562 4.798280 0.000000 15.814957 -4.169310 0.000000 15.814957 -3.172911 0.000000 15.594869 -2.176512 0.000000 15.484825 -1.180113 0.000000 15.374782 -0.183714 0.000000 14.824562 0.812684 0.000000 15.814957 1.809083 0.000000 16.035044 2.805482 0.000000 15.814957 3.801881 0.000000 15.814957 4.798280 0.000000 16.310154 -1.180113 0.000000 16.695307 -3.172911 0.000000 16.805349 -4.169310 0.000000 16.805349 -2.176512 0.000000 16.365175 -0.183714 0.000000 16.255131 0.812684 0.000000 16.805349 1.809083 0.000000 16.805349 2.805482 0.000000 16.805349 3.801881 0.000000 16.805349 4.798280 0.000000 17.135481 -1.180113 0.000000 17.245525 -0.183714 0.000000 17.795744 -3.172911 0.000000 17.795744 -4.169310 0.000000 17.795744 -2.176512 0.000000 17.355570 0.812684 0.000000 17.575657 2.805482 0.000000 17.795744 1.809083 0.000000 17.685699 3.801881 0.000000 17.795744 4.798280 0.000000 17.960810 -1.180113 0.000000 18.015831 -0.183715 0.000000 18.676094 -3.172911 0.000000 18.566051 -2.176512 0.000000 18.786139 -4.169310 0.000000 18.235920 0.812684 0.000000 18.786139 2.805482 0.000000 19.116270 1.809083 0.000000 18.786139 3.801881 0.000000 18.786139 4.798280 0.000000 18.786139 -1.180113 0.000000 18.786139 -0.183714 0.000000 19.556444 -2.176512 0.000000 19.666489 -3.172911 0.000000 19.776531 -4.169310 0.000000 19.226313 0.812684 0.000000 19.776531 2.805482 0.000000 19.721510 1.310884 0.000000 20.436794 1.809083 0.000000 19.776531 3.801881 0.000000 19.776531 4.798280 0.000000 19.776531 -1.180113 0.000000 19.776531 -0.183714 0.000000 20.766926 -2.176512 0.000000 20.766926 -3.172911 0.000000 20.766926 -4.169310 0.000000 20.326752 0.812684 0.000000 20.766926 2.805482 0.000000 21.262123 1.809083 0.000000 20.766926 4.798280 0.000000 20.876970 3.801881 0.000000 20.766926 -1.180113 0.000000 20.546839 -0.183715 0.000000 21.757320 -4.169310 0.000000 21.537231 -2.176512 0.000000 21.757320 -3.172911 0.000000 21.317144 -0.183714 0.000000 21.757320 0.812684 0.000000 21.757320 2.805482 0.000000 22.087452 1.809083 0.000000 21.757320 4.798280 0.000000 21.867363 3.801881 0.000000 21.757320 -1.180113 0.000000 22.747713 -4.169310 0.000000 28.902033 1.907509 0.000000 28.924555 2.107399 0.000000 28.907681 2.008086 0.000000 28.824337 1.885115 0.000000 22.912779 1.809083 0.000000 28.818836 1.983063 0.000000 22.527626 -2.176512 0.000000 22.747713 -3.172911 0.000000 22.307539 -0.183714 0.000000 22.747713 0.812684 0.000000 22.747713 2.805482 0.000000 22.747713 4.798280 0.000000 22.857758 3.801881 0.000000 22.747713 -1.180113 0.000000 23.738108 -4.169310 0.000000 28.907681 1.806932 0.000000 28.835754 2.099375 0.000000 28.852076 2.195439 0.000000 28.952442 2.204197 0.000000 28.724493 1.854978 0.000000 28.767902 1.750078 0.000000 23.738108 1.809083 0.000000 23.738108 0.812684 0.000000 28.610664 2.010249 0.000000 28.716480 2.076019 0.000000 28.566305 1.866473 0.000000 28.349161 2.066067 0.000000 24.728502 1.809083 0.000000 24.728502 0.812684 0.000000 26.549652 2.204551 0.000000 25.596031 2.142696 0.000000 23.738108 -2.176512 0.000000 23.738108 -3.172911 0.000000 23.738108 -0.183714 0.000000 23.958195 2.805482 0.000000 23.738108 4.798280 0.000000 23.848152 3.801881 0.000000 23.738108 -1.180113 0.000000 24.728502 -4.169310 0.000000 24.618458 -3.172911 0.000000 28.924555 1.707619 0.000000 28.742992 2.217110 0.000000 28.879051 2.289070 0.000000 28.990992 2.297265 0.000000 28.647402 1.659295 0.000000 28.755713 1.604558 0.000000 28.862415 1.607955 0.000000 24.728502 -0.183714 0.000000 28.590345 2.190568 0.000000 28.413723 1.866147 0.000000 28.521944 1.722697 0.000000 28.157436 2.210746 0.000000 28.176468 1.945729 0.000000 28.435228 2.331439 0.000000 24.728502 2.805482 0.000000 25.436258 1.353608 0.000000 25.544035 0.660100 0.000000 26.549725 2.848503 0.000000 26.038727 1.814062 0.000000 26.038036 2.970551 0.000000 26.983553 2.536172 0.000000 27.094980 2.084319 0.000000 26.680515 1.726696 0.000000 25.435835 2.894643 0.000000 29.039721 2.385431 0.000000 27.745619 2.195485 0.000000 27.931280 2.381408 0.000000 27.446920 2.393272 0.000000 27.958111 2.093240 0.000000 24.508413 -2.176512 0.000000 24.728502 -1.180113 0.000000 24.728502 3.801881 0.000000 24.728502 4.798280 0.000000 25.289106 -3.402167 0.000000 25.718895 -4.169310 0.000000 25.191071 -2.480619 0.000000 28.952442 1.610821 0.000000 28.638184 2.455255 0.000000 28.784399 2.398531 0.000000 28.934576 2.406532 0.000000 28.667112 1.434204 0.000000 28.531704 1.500804 0.000000 28.814245 1.421708 0.000000 28.887735 1.522273 0.000000 25.543802 -0.363698 0.000000 28.195269 1.683911 0.000000 28.395197 1.454816 0.000000 28.248659 2.584732 0.000000 27.931282 1.761992 0.000000 28.482901 2.643875 0.000000 26.429159 1.080088 0.000000 26.148573 0.176052 0.000000 26.549461 3.424151 0.000000 26.983913 3.096307 0.000000 25.749939 3.590000 0.000000 27.352509 2.818158 0.000000 27.537239 1.986811 0.000000 27.319359 1.770045 0.000000 26.947166 1.177083 0.000000 29.098013 2.467587 0.000000 27.773325 2.555574 0.000000 28.013098 2.646125 0.000000 29.410572 2.716846 0.000000 29.240252 2.609825 0.000000 29.165138 2.542700 0.000000 29.322407 2.668118 0.000000 25.547503 -1.041100 0.000000 28.213854 1.425100 0.000000 25.551203 -1.718502 0.000000 25.718895 4.798280 0.000000 26.191935 -3.397027 0.000000 25.793156 -2.748836 0.000000 26.709290 -4.169310 0.000000 28.990992 1.517753 0.000000 28.716658 2.692436 0.000000 28.856344 2.558052 0.000000 29.036921 2.569413 0.000000 28.730835 1.307569 0.000000 28.585312 1.334802 0.000
[...]
<CellData Scalars="Label">
<DataArray type="Int32" Name="Label" format="ascii">
0 0 0 0 0 0 0 0 0 0 0 0 0 0 0 0 0 0 0 0 0 0 0 0 0 0 0 0 0 0 0 0 0 0 0 0 0 0 0 0 0 0 0 0 0 0 0 0 0 0 0 0 0 0 0 0 0 0 0 0 0 0 0 0 0 0 0 0 0 0 0 0 0 0 0 0 0 0 0 0 0 0 0 0 0 0 0 0 0 0 0 0 0 0 0 0 0 0 0 0 0 0 0 0 0 0 0 0 0 0 0 0 0 0 0 0 0 0 0 0 0 0 0 0 0 0 0 0 0 0 0 0 0 0 0 0 0 0 0 0 0 0 0 0 0 0 0 0 0 0 0 0 0 0 0 0 0 0 0 0 0 0 0 0 0 0 0 0 0 0 0 0 0 0 0 0 0 0 0 0 0 0 0 0 0 0 0 0 0 0 0 0 0 0 0 0 0 0 0 0 0 0 0 0 0 0 0 0 0 0 0 0 0 0 0 0 0 0 0 0 0 0 0 0 0 0 0 0 0 0 0 0 0 0 0 0 0 0 0 0 0 0 0 0 0 0 0 0 0 0 0 0 0 0 0 0 0 0 0 0 0 0 0 0 0 0 0 0 0 0 0 0 0 0 0 0 0 0 0 0 0 0 0 0 0 0 0 0 0 0 0 0 0 0 0 0 0 0 0 0 0 0 0 0 0 0 0 0 0 0 0 0 0 0 0 0 0 0 0 0 0 0 0 0 0 0 0 0 0 0 0 0 0 0 0 0 0 0 0 0 0 0 0 0 0 0 0 0 0 0 0 0 0 0 0 0 0 0 0 0 0 0 0 0 0 0 0 0 0 0 0 0 0 0 0 0 0 0 0 0 0 0 0 0 0 0 0 0 0 0 0 0 0 0 0 0 0 0 0 0 0 0 0 0 0 0 0 0 0 0 0 0 0 0 0 0 0 0 0 0 0 0 0 0 0 0 0 0 0 0 0 0 0 0 0 0 0 0 0 0 0 0 0 0 0 0 0 0 0 0 0 0 0 0 0 0 0 0 0 0 0 0 0 0 0 0 0 0 0 0 0 0 0 0 0 0 0 0 0 0 0 0 0 0 0 0 0 0 0 0 0 0 0 0 0 0 0 0 0 0 0 0 0 0 0 0 0 0 0 0 0 0 0 0 0 0 0 0 0 0 0 0 0 0 0 0 0 0 0 0 0 0 0 0 0 0 0 0 0 0 0 0 0 0 0 0 0 0 0 0 0 0 0 0 0 0 0 0 0 0 0 0 0 0 0 0 0 0 0 0 0 0 0 0 0 0 0 0 0 0 0 0 0 0 0 0 0 0 0 0 0 0 0 0 0 0 0 0 0 0 0 0 0 0 0 0 0 0 0 0 0 0 0 0 0 0 0 0 0 0 0 0 0 0 0 0 0 0 0 0 0 0 0 0 0 0 0 0 0 0 0 0 0 0 0 0 0 0 0 0 0 0 0 0 0 0 0 0 0 0 0 0 0 0 0 0 0 0 0 0 0 0 0 0 0 0 0 0 0 0 0 0 0 0 0 0 0 0 0 0 0 0 0 0 0 0 0 0 0 0 0 0 0 0 0 0 0 0 0 0 0 0 0 0 0 0 0 0 0 0 0 0 0 0 0 0 0 0 0 0 0 0 0 0 0 0 0 0 0 0 0 0 0 0 0 0 0 0 0 0 0 0 0 0 0 0 0 0 0 0 0 0 0 0 0 0 0 0 0 0 0 0 0 0 0 0 0 0 0 0 0 0 0 0 0 0 0 0 0 0 0 0 0 0 0 0 0 0 0 0 0 0 0 0 0 0 0 0 0 0 0 0 0 0 0 0 0 0 0 0 0 0 0 0 0 0 0 0 0 0 0 0 0 0 0 0 0 0 0 0 0 0 0 0 0 0 0 0 0 0 0 0 0 0 0 0 0 0 0 0 0 0 0 0 0 0 0 0 0 0 0 0 0 0 0 0 0 0 0 0 0 0 0 0 0 0 0 0 0 0 0 0 0 0 0 0 0 0 0 0 0 0 0 0 0 0 0 0 0 0 0 0 0 0 0 0 0 0 0 0 0 0 0 0 0 0 0 0 0 0 0 0 0 0 0 0 0 0 0 0 0 0 0 0 0 0 0 0 0 0 0 0 0 0 0 0 0 0 0 0 0 0 0 0 0 0 0 0 0 0 0 0 0 0 0 0 0 0 0 0 0 0 0 0 0 0 0 0 0 0 0 0 0 0 0 0 0 0 0 0 0 0 0 0 0 0 0 0 0 0 0 0 0 0 0 0 0 0 0 0 0 0 0 0 0 0 0 0 0 0 0 0 0 0 0 0 0 0 0 0 0 0 0 0 0 0 0 0 0 0 0 0 0 0 0 0 0 0 0 0 0 0 0 0 0 0 0 0 0 0 0 0 0 0 0 0 0 0 0 0 0 0 0 0 0 0 0 0 0 0 0 0 0 0 0 0 0 0 0 0 0 0 0 0 0 0 0 0 0 0 0 0 0 0 0 0 0 0 0 0 0 0 0 0 0 0 0 0 0 0 0 0 0 0 0 0 0 0 0 0 0 0 0 0 0 0 0 0 0 0 0 0 0 0 0 0 0 0 0 0 0 0 0 0 0 0 0 0 0 0 0 0 0 0 0 0 0 0 0 0 0 0 0 0 0 0 0 0 0 0 0 0 0 0 0 0 0 0 0 0 0 0 0 0 0 0 0 0 0 0 0 0 0 0 0 0 0 0 0 0 0 0 0 0 0 0 0 0 0 0 0 0 0 0 0 0 0 0 0 0 0 0 0 0 0 0 0 0 0 0 0 0 0 0 0 0 0 0 0 0 0 0 0 0 0 0 0 0 0 0 0 0 0 0 0 0 0 0 0 0 0 0 0 0 0 0 0 0 0 0 0 0 0 0 0 0 0 0 0 0 0 0 0 0 0 0 0 0 0 0 0 0 0 0 0 0 0 0 0 0 0 0 0 0 0 0 0 0 0 0 0 0 0 0 0 0 0 0 0 0 0 0 0 0 0 0 0 0 0 0 0 0 0 0 0 0 0 0 0 0 0 0 0 0 0 0 0 0 0 0 0 0 0 0 0 0 0 0 0 0 0 0 0 0 0 0 0 0 0 0 0 0 0 0 0 0 0 0 0 0 0 0 0 0 0 0 0 0 0 0 0 0 0 0 0 0 0 0 0 0 0 0 0 0 0 0 0 0 0 0 0 0 0 0 0 0 0 0 0 0 0 0 0 0 0 0 0 0 0 0 0 0 0 0 0 0 0 0 0 0 0 0 0 0 0 0 0 0 0 0 0 0 0 0 0 0 0 0 0 0 0 0 0 0 0 0 0 0 0 0 0 0 0 0 0 0 0 0 0 0 0 0 0 0 0 0 4 4 4 4 4 4 4 4 4 4 4 4 4 4 4 4 4 4 4 4 4 4 4 4 4 4 4 4 4 4 4 4 4 4 4 4 4 4 4 4 4 4 4 4 4 4 4 4 4 4 4 4 4 4 4 4 3 3 3 3 3 3 3 3 3 3 3 3 3 3 3 3 3 3 3 3 3 3 3 3 3 3 3 3 3 3 3 3 3 3 3 3 3 3 3 3 3 3 3 3 3 3 3 3 3 3 3 3 3 3 3 3 3 3 3 3 3 3 3 3 3 3 3 3 3 3 3 3 3 3 3 3 3 3 2 2 2 2 2 2 2 2 1 1 1 1 1 1 1 1 
</DataArray>
<DataArray type="Float64" Name="u" NumberOfComponents="1" format="ascii">
7.3341706705382248e-01 3.0209430952336486e-02 3.7385404668655708e-01 4.4842849992362654e-01 2.5730748560334149e-01 2.4828767765213919e-01 3.6214854351136994e-01 3.0001664809294304e-01 1.1383394873631503e-01 2.7675570628380231e-01 1.9766547536778376e-01 2.2165569881738179e-01 5.3395498311446632e-01 2.1305981301655053e-01 3.9103873064446215e-01 4.7842516243318395e-02 2.5572013305866381e-01 2.0284787823176720e-01 4.1504279520401710e-01 3.0750390206970002e-01 3.5206212767936129e-01 3.0390772146370953e-01 1.2036176420766437e-01 6.6207597023367537e-02 1.0388383811890298e-01 5.8281526961568608e-01 5.0237231106682123e-01 5.5967652245093991e-01 4.4224555037015301e-01 7.7457157992199344e-01 6.2605195958106097e-01 7.0076033820711714e-01 1.7020555154260492e-01 2.6457904775904301e-01 1.0197682768111871e-01 7.4478436706695600e-02 1.3168979337000963e-01 2.2963174425560448e-01 3.1807202676174012e-01 3.6251924324540263e-01 2.3674847147528644e-01 2.2947570305739046e-02 2.9357461106641522e-03 2.3268179499908916e-02 1.9736120085002240e-01 1.4393218503799071e-01 1.5863419478983357e-01 9.3024716439292169e-03 3.8009146781371145e-01 4.8151067977472123e-01 3.3673806047431204e-01 2.4755993617204536e-01 2.4346583176879460e-01 1.5974337805560340e-01 1.1171824863465452e-01 6.5991794156227593e-02 5.2381017730718508e-02 6.0294854312766155e-01 5.4992181915438132e-01 5.5788919923743874e-01 6.5466348154502940e-01 1.5079324932207883e-01 1.4379635832182991e-01 1.9168109291027313e-01 3.1442289372558624e-01 1.2017453391025866e-01 1.5443830980453577e-01 7.7869823942077684e-02 7.9071229755918598e-02 1.4129742003715071e-01 2.0429998848424952e-01 9.6737696019851535e-02 4.4066482125561753e-02 4.6785343108151798e-03 2.6700872064137311e-02 9.2025703587629119e-03 1.2140555628977001e-01 5.2490223339084423e-02 2.0606153847793959e-02 1.3841293996341358e-02 1.0105769270900301e-01 1.1107935358659207e-01 3.4924307710169369e-02 1.3717595735684162e-02 2.1710349015137284e-02 1.0183422052171900e+00 1.3528650365530615e+00 1.4393862844929737e+00 1.5045106493215250e+00 1.4060489210532503e+00 1.4750679372166844e+00 1.3417953919333949e+00 1.6246108841031561e+00 1.4512162320142310e+00 1.6495773483617253e+00 1.7439897000438500e+00 1.6967402003475240e+00 1.4353284162978612e+00 1.2968551610371490e+00 1.3404328486319530e+00 1.0646478858978750e+00 1.3886647006557671e+00 1.8402934374142497e+00 1.2926724228740896e+00 1.7856802010965482e+00 1.6134921981274446e+00 1.6327935531926754e+00 1.6720653230958162e+00 1.4095002896652202e+00 7.9235985332979020e-01 1.6034318909608170e-01 8.0690595471961224e-02 2.2075767045976885e-01 1.2655591306525282e-01 2.1799992264054099e-01 2.8176605291216825e-02 1.5573748232683893e+00 1.8186913272381027e+00 1.5707489027449641e+00 1.7007404886479698e+00 1.6868963204453205e+00 1.6899130490925605e+00 1.5707188253269648e+00 1.3280199019718373e+00 1.2754179382672066e+00 1.3716580934669182e+00 1.3095574069834153e+00 1.3779332679394232e+00 7.6719501852326744e-01 5.8072186292256101e-01 6.3182021781496400e-02 4.4366435582325690e-02 2.0948860530461849e-01 7.3679111513385770e-02 1.4335464566135953e-01 1.5710822421948067e-01 2.7240322756469676e-01 2.2433810685015432e-01 4.8940375011302981e-02 3.6738810508157464e-02 1.3843032704500877e+00 1.4280396801728137e+00 1.3899821734937947e+00 7.8301249755603014e-02 3.4460692650086566e-01 4.9527612352528094e-01 4.4993368151034752e-01 9.3982785310844669e-02 1.1885224774845658e-01 1.6307131878420189e+00 1.6364707597348067e+00 1.5904395020386213e+00 1.5291418750937653e+00 1.2160465898041566e+00 6.3186729319068502e-01 1.7270972781093827e+00 1.6225827037088072e+00 1.7685982440697854e+00 1.3144597384521686e-01 6.3377286150648499e-02 1.4221656766107160e-01 4.7057509529728414e-01 3.9920024075536004e-01 1.7942140638552488e+00 1.7754911068065207e+00 1.6096581212467911e+00 1.6343129950743585e+00 1.4561412770426281e+00 7.5300656030823393e-02 4.6672480369220276e-01 5.3099584257228871e-01 1.3121532201990088e-01 1.8354287364597930e+00 1.7904724224207391e+00 1.7063656609401265e+00 2.7986534970511184e-01 1.4532456992164994e-01 3.3691869933306490e-01 7.2265731388526919e-02 6.5349804117080623e-01 4.6175826297813316e-01 4.7142818435049283e-01 3.4151165488300123e-01 6.0011381066930336e-01 6.4761528279385208e-02 3.2095123855727042e-01 1.2184533221736597e-01 2.3021675359715749e-01 8.5479041549244039e-01 9.4103974515824462e-01 7.8770570591908784e-01 1.1123038116409640e+00 1.0434119317559061e+00 8.8950990411458886e-01 1.0090688415263558e+00 9.4578521142214700e-01 7.5578256305066338e-01 9.0572294951753951e-01 1.0297593305749184e+00 7.2177235517913152e-01 2.7569643009607137e-01 7.1977778350259114e-01 6.6133951807632374e-01 5.4148797911530477e-01 7.2375960283820095e-01 5.6209248738761231e-01 7.9044367871543675e-01 4.8784046765851441e-01 5.4159222057714440e-01 4.3846440420052857e-01 1.0463007903421482e+00 1.2390641311571586e+00 1.2816151858722791e+00 1.1215308845804948e+00 1.0638554988274167e+00 1.1357000307332290e+00 8.6221791202082332e-01 9.3907104902785132e-01 1.6341947362004225e+00 1.5874900518327519e+00 1.7417654548059316e+00 1.8141702578542716e+00 1.8655313387070436e+00 1.9127784497395495e+00 1.7533386208416379e+00 1.8533216943200255e+00 1.7624324148100956e+00 1.8575464173551577e+00 1.8906121939821983e+00 1.8807900771876498e+00 1.9221163446151761e+00 1.9272230561806771e+00 1.8767704226365252e+00 5.5152119939297362e-02 2.9233665530801434e-01 3.7621292349527280e-01 3.9798406715906687e-01 6.2472585301179363e-02 3.0964023297202559e-01 2.7485508193588437e-01 5.0003049758998697e-01 1.4206707085010573e-01 2.4849712904501817e-01 2.7271011973376474e-01 9.8002660552072060e-02 1.9154838651658732e+00 5.6639692693402632e-01 8.6312964907345369e-01 7.1668319635282407e-01 1.8861185164786765e-01 2.1582075933548900e-01 1.1284708561539164e-01 3.8961559159982458e-02 2.4890339716952409e-01 4.6607389249498407e-02 1.8435416643612677e+00 1.8702334480265388e+00 1.5987405037333962e+00 8.2448022091285419e-02 1.3201442120828794e-01 1.6132210769579386e-01 2.2029836116915825e-02 1.4555960304237284e-01 2.9669964578858239e-02 1.6685615696955001e+00 1.7419931678428329e+00 1.7295189268996447e+00 6.6071341221809285e-02 1.7575813709592090e+00 1.2430842868825744e+00 1.5291848386311182e+00 1.2509923949884338e+00 1.3122028320420767e+00 9.7945541175260065e-01 1.1092034553802839e+00 1.0526740458840111e+00 1.1632007283055583e+00 8.8688001470020450e-01 1.4908031899274894e+00 1.5447470737040718e+00 1.3589552239097826e+00 1.3538620496810201e+00 1.3859968817713959e+00 1.1744198271908191e+00 1.1960219860032453e+00 5.9283836362577613e-01 2.8914716218717418e-01 3.0254277526804263e-01 1.7567086594039144e-01 6.5970432227496090e-01 6.5876145912933104e-01 6.2996239066784909e-01 6.9096629524061881e-01 5.0835265420008713e-01 6.6316326799068670e-01 8.3767220711419488e-01 1.1379326299382342e+00 1.0797022333062487e+00 9.8105241061972848e-01 1.0010319257662945e+00 1.1073955307993200e+00 8.3692083724864208e-01 8.9660713757648003e-01 8.0647007655211145e-01 6.0558221048275729e-01 1.0208493976168862e+00 8.6468517760395991e-01 9.9408229350191224e-01 9.2547923530391329e-01 1.1887913472348193e+00 1.0659125068967117e+00 1.2130041930411872e+00 1.2271433630340915e+00 1.5093779594421277e+00 1.3660785563807742e+00 1.4717529719368763e+00 1.3302157929503311e+00 1.4855109485468885e+00 1.5420088377923133e+00 1.4199893188470063e+00 1.5782055223985751e+00 7.2980323853491980e-01 8.1740160999190248e-01 6.1068227675457520e-01 7.7921934725586206e-01 7.8638733719763909e-01 9.2504051101366103e-01 1.0077139245346198e+00 8.6808268106479414e-01 1.5416531876054243e-01 5.3012246173924596e-02 5.6644357643417853e-01 5.7483953936829724e-01 2.5083310614107795e-01 1.0352675433614276e+00 3.6737797414847131e-02 1.6113088997181404e+00 1.3894910985746649e+00 1.3208395447752506e+00 1.2610931314051241e+00 1.2251354620985455e+00 1.0868327315947144e+00 1.1309826265552696e+00 1.1939148818533289e+00 1.2634722237531020e+00 6.4243428359837562e-01 7.6647698708700118e-01 4.8750163989495587e-01 6.6855389693153855e-01 6.0594763319759726e-01 6.5791893219190911e-01 7.4772716429065711e-01 1.2618036606179988e+00 1.5672806910837684e+00 1.5158912464357024e+00 1.6749624597502852e+00 1.4934993248076289e+00 1.3190287504060647e+00 1.4602314116664648e+00 1.4280397568327214e+00 1.2922827961696046e+00 1.4430370726988686e+00 1.1331546905834036e+00 1.3525306662531915e+00 1.3073055257315280e+00 1.1839596361826425e+00 1.6553904578669383e+00 8.0719834854269501e-01 8.6234565547300213e-01 1.1641977925402904e+00 1.0597678365261105e+00 1.0863651090658479e+00 9.9328626466656322e-01 1.1089709609182719e+00 1.7390651299679853e+00 1.7307956466820764e+00 1.8124024443075315e+00 1.6006937846678044e+00 1.6324198453135941e+00 1.5331661561356091e+00 1.5639088039359739e+00 1.7778933467187130e+00 2.5848092908481647e-02 1.0076299466591031e-01 8.6037049340047952e-02 9.1143152566992347e-02 7.6668485659701358e-02 2.1215258557200345e-01 1.0358023443374596e-01 5.6377274734532956e-01 5.4633161165144384e-01 3.4556218645441905e-01 3.3635028350843943e-01 5.7215458397652208e-01 4.0453751785873521e-01 3.1397633232692894e-02 1.6691078230374312e+00 1.5340133780136416e+00 1.6214086234434979e+00 6.4706345679427983e-04 9.6301958929765445e-03 1.8773895367297641e-01 2.5530867594086237e-01 1.6341252691512353e-01 1.3430207381497977e-01 1.0270418742163964e-01 1.1619306228238124e-01 4.6861106809864508e-02 4.8324646973985225e-02 1.3386656295686022e-01 8.9599586906931677e-02 1.9587379211772171e-01 1.5560461816485589e-02 6.5543189582392934e-03 1.5566270904325741e+00 1.2940472897947719e-01 5.5034580513004050e-03 7.0516517217061800e-02 8.6983427898269766e-02 7.3622718723561326e-02 7.7317296452491302e-01 8.2031907114287916e-01 1.5067536325659456e+00 1.4429752284815018e+00 1.4572729627284393e+00 6.1880716958968773e-01 6.6457258258535679e-01 6.9140033798093969e-01 7.1928251395798326e-01 7.2935853764779146e-01 7.3615070820079076e-01 7.7816194453059073e-01 7.8809609509100609e-01 9.9333597929670792e-01 9.3530118117824335e-01 9.1319378604218782e-01 8.7569479947297379e-01 9.0278614644052113e-01 9.0202952693895133e-01 8.6103091928018061e-01 1.1936504720164685e+00 1.0673823689498696e+00 1.0860403882839340e+00 1.2461762346207566e+00 1.4413621259640679e+00 1.2277106746334501e+00 1.3101183979669502e+00 1.3176407209781340e+00 1.4112126473438997e+00 1.3405455869081209e+00 1.6649641722985753e+00 1.4731916395103659e+00 5.4923478113652913e-01 8.6225525363308209e-01 6.9943677174680063e-01 8.5305267053246636e-01 7.5864175103723719e-01 1.5357360757061700e+00 1.5255477536925595e+00 1.4001765254587235e+00 1.2117359906396739e+00 9.9713266654464117e-01 3.3873666251404466e-01 3.2526004663583963e-01 4.1353994377511050e-01 3.9044331724798681e-01 5.2009405189355684e-01 3.7820295639437584e-01 4.6562827526178652e-01 5.6120622050620850e-01 4.9096629977697209e-01 8.3549498299617186e-01 7.4973673597305779e-01 6.8695942774772423e-01 5.9664131278137000e-01 6.6911365954732216e-01 6.9551497847305455e-01 1.4783687922648898e+00 1.4797460368496114e+00 1.2074077135486359e+00 1.1549482575038068e+00 1.3864799004738622e+00 1.3671167243215849e+00 1.2690214079172701e+00 1.1406375982620069e+00 1.4102244464138580e+00 1.4145985746922227e+00 1.2883829226373869e+00 1.4216050129887154e+00 1.3588550527084162e+00 1.3838406758961757e+00 1.5203443347016175e+00 1.2889100508188878e+00 1.3593848645929978e+00 1.3708759340078323e+00 1.4725166967012879e+00 1.1113676337577778e+00 8.3292572556243760e-01 8.7127176764865444e-01 9.4465465599944642e-01 1.1837590574632848e+00 1.2419491805461902e+00 1.1285331351531114e+00 1.1827241652617371e+00 1.2473552757321793e+00 9.7466060202255256e-01 9.5907894797545157e-01 1.0884673759519403e+00 8.1572601783583587e-01 7.6156059442769863e-01 6.8306569328409705e-01 7.6222306104274307e-01 7.8741183330424569e-01 8.4052216753241993e-01 8.5490905250418814e-01 9.3714575178618886e-01 1.0679229184542989e+00 9.4811316300393456e-01 9.2802487593840377e-01 9.2583294253164850e-01 9.0191994237610640e-01 8.9013986521568489e-01 8.9376690470720876e-01 9.1712976536908108e-01 1.2306014284246767e+00 1.2985042745763620e+00 1.1307963498294695e+00 1.0860249099847068e+00 1.2197955207517772e+00 1.1093025454470671e+00 1.1478583810078933e+00 1.0530629378432574e+00 9.5108562003483321e-01 9.6128636007602408e-01 9.6962347291639728e-01 9.7152494620315066e-01 1.0540509072546380e+00 9.9036252287343207e-01 1.0302647272869041e+00 1.1934910097286133e+00 9.6014700702718825e-01 9.4487357025044139e-01 9.4432361248477914e-01 9.2657632403791179e-01 1.1478621759595549e+00 1.1730501456799889e+00 1.0966002669790607e+00 8.5636157442644945e-01 1.0033749419388867e+00 9.9934423365745939e-01 1.0842517439998882e+00 1.0635018903830198e+00 1.0646749397727233e+00 1.0036604303300303e+00 1.0247876058194696e+00 1.0238271285390650e+00 1.0668420700933241e+00 1.0390528550812035e+00 1.0565683435146100e+00 1.0739527272322724e+00 1.0537923324649283e+00 9.1582369328663327e-01 9.3784899708670943e-01 9.3764755558835855e-01 9.5332065828389800e-01 9.6644110930494875e-01 9.6232896479091723e-01 9.7530558347256258e-01 9.6616356381909174e-01 9.5248647080458926e-01 9.5894530197518990e-01 9.5670148326468163e-01 9.6975890960444444e-01 1.0167396579458843e+00 1.0500219941455657e+00 8.7132158114109715e-01 9.0091945977837185e-01 9.2642419995565728e-01 9.7914208005986925e-01 9.8439931232727940e-01 9.9669750078951858e-01 9.2346297887682438e-01 8.9791831374494557e-01 8.7517728716736731e-01 8.4268678531743768e-01 8.8805769972158322e-01 8.1798012549042198e-01 8.3284620038941526e-01 1.0042045898864593e+00 9.8397059005439602e-01 9.4403161145497738e-01 1.1307186554860262e+00 1.1692048371854300e+00 1.1090865141857786e+00 1.1440681919078286e+00 1.1164358358410291e+00 1.0982631721532850e+00 1.1112884876614748e+00 1.0000097357711537e+00 1.0001673073371642e+00 1.0004270030130034e+00 1.0000041690836388e+00 1.0001048302086453e+00 1.0002137328249781e+00 1.0001140748159909e+00 1.0000305992876670e+00 1.0000789450702448e+00 1.0001422711346935e+00 1.0000515471198770e+00 1.0008172886078606e+00 1.0009934233989934e+00 1.0012938657178510e+00 1.0012304605287747e+00 1.0006221455388198e+00 1.0003085102604568e+00 1.0002645759134348e+00 1.0000369000129941e+00 1.0005773036058112e+00 1.0008576874827231e+00 1.0013078109469247e+00 1.0007299336578430e+00 1.0018047956200178e+00 9.9980041502323669e-01 9.9953056680280672e-01 1.0002923533833017e+00 9.9995859243278895e-01 1.0001465014666264e+00 1.0000504314384360e+00 9.9987605394666013e-01 1.0005245040327098e+00 1.0005971494476329e+00 1.0009123511862683e+00 1.0009989394817500e+00 1.0000222476739085e+00 1.0000060380829972e+00 1.0014707271017214e+00 1.0004083253579101e+00 1.0005176401020339e+00 1.0004568252805646e+00 1.0001421586339947e+00 9.9992417653579890e-01 9.9988341046423646e-01 1.0000044875899010e+00 1.0001793757578863e+00 1.0004010085638475e+00 1.0018943486181906e+00 1.0015940478018606e+00 1.0011968681538468e+00 9.9999002894911615e-01 9.9986254461999935e-01 9.9998383566169657e-01 9.9990841639428252e-01 9.9999590345095202e-01 9.9991548411404674e-01 9.9999871984399724e-01 9.9997320270823686e-01 9.9972040266331619e-01 9.9982066299420647e-01 9.9999674403799188e-01 9.9948211917548502e-01 9.9972226205897008e-01 9.9967480887793259e-01 9.9998842008956546e-01 9.9918286492246911e-01 9.9942269124500915e-01 9.9908255811559665e-01 9.9876166116583021e-01 9.9943477191848795e-01 9.9962918934362732e-01 9.9908845951660608e-01 9.9958527593494251e-01 9.9980335161144773e-01 9.9962019562934712e-01 9.9989450844888350e-01 9.9937041582908748e-01 9.9909530934100288e-01 9.9988637989782769e-01 1.0000806744051389e+00 9.9934030835438148e-01 9.9753806701193026e-01 9.9851421920587935e-01 9.9811033500877522e-01 1.0000015366670194e+00 9.9999590945556238e-01 1.0000418774327653e+00 1.0001038369002511e+00 1.0000000148948320e+00 9.9994898527234111e-01 1.0002877949816658e+00 1.0001267284063466e+00 1.0000055857239616e+00 1.0000084345984708e+00 9.9978580009952533e-01 9.9998484920775477e-01 1.0006618545927854e+00 1.0003075559260455e+00 1.0005085083695704e+00 1.0003664492510147e+00 1.0002617511651586e+00 9.9942393999359513e-01 9.9995031783013011e-01 9.9881144771849995e-01 9.9957298622169621e-01 9.9969884451028235e-01 1.0000176153522771e+00 1.0027382791050312e+00 1.0019354352883900e+00 1.0021086549430200e+00 9.9850735147351277e-01 9.9900669489981675e-01 9.9931826217072772e-01 1.0042692821809105e+00 9.9803882218239937e-01 9.9731807814594609e-01 9.9786316446276790e-01 1.0039018609274191e+00 1.0039185983036365e+00 1.0022441928269155e+00 9.9807