<?xml version="1.0"?>
<VTKFile type="UnstructuredGrid"  byte_order="LittleEndian">
<UnstructuredGrid>
<Piece NumberOfPoints="1288" NumberOfCells=" 2578">
<Points>
<DataArray type="Float32" NumberOfComponents="3" format="ascii">
8.201511 1.626944 0.000000 6.112569 3.427225 0.000000 0.788562 -3.541701 0.000000 38.055252 -3.541701 0.000000 0.788562 5.055096 0.000000 38.055252 5.055096 0.000000 8.197247 1.712390 0.000000 8.184496 1.796986 0.000000 8.163385 1.879893 0.000000 8.134125 1.960286 0.000000 8.097005 2.037366 0.000000 8.052395 2.110367 0.000000 8.000738 2.178563 0.000000 7.942548 2.241277 0.000000 7.878402 2.297886 0.000000 7.808939 2.347827 0.000000 7.734848 2.390603 0.000000 7.656867 2.425789 0.000000 7.575770 2.453037 0.000000 7.492362 2.472074 0.000000 7.407475 2.482712 0.000000 7.321949 2.484844 0.000000 7.236636 2.478451 0.000000 7.152383 2.463595 0.000000 7.070028 2.440424 0.000000 6.990390 2.409168 0.000000 6.914260 2.370139 0.000000 6.842393 2.323723 0.000000 6.775506 2.270381 0.000000 6.714262 2.210646 0.000000 6.659270 2.145109 0.000000 6.611077 2.074422 0.000000 6.570161 1.999289 0.000000 6.536930 1.920454 0.000000 6.511713 1.838703 0.000000 6.494761 1.754847 0.000000 6.486243 1.669720 0.000000 6.486243 1.584168 0.000000 6.494761 1.499040 0.000000 6.511713 1.415184 0.000000 6.536930 1.333433 0.000000 6.570161 1.254599 0.000000 6.611077 1.179465 0.000000 6.659270 1.108778 0.000000 6.714262 1.043242 0.000000 6.775506 0.983506 0.000000 6.842393 0.930165 0.000000 6.914260 0.883749 0.000000 6.990390 0.844719 0.000000 7.070028 0.813463 0.000000 7.152383 0.790292 0.000000 7.236636 0.775436 0.000000 7.321949 0.769043 0.000000 7.407475 0.771176 0.000000 7.492362 0.781814 0.000000 7.575770 0.800851 0.000000 7.656867 0.828098 0.000000 7.734848 0.863285 0.000000 7.808939 0.906061 0.000000 7.878402 0.956001 0.000000 7.942548 1.012610 0.000000 8.000738 1.075324 0.000000 8.052395 1.143521 0.000000 8.097005 1.216522 0.000000 8.134125 1.293602 0.000000 8.163385 1.373994 0.000000 8.184496 1.456901 0.000000 8.197247 1.541498 0.000000 6.107673 3.525330 0.000000 6.093033 3.622459 0.000000 6.068795 3.717648 0.000000 6.035200 3.809951 0.000000 5.992581 3.898450 0.000000 5.941362 3.982266 0.000000 5.882052 4.060565 0.000000 5.815241 4.132570 0.000000 5.741593 4.197566 0.000000 5.661839 4.254905 0.000000 5.576772 4.304018 0.000000 5.487238 4.344417 0.000000 5.394127 4.375701 0.000000 5.298363 4.397559 0.000000 5.200899 4.409772 0.000000 5.102703 4.412221 0.000000 5.004751 4.404881 0.000000 4.908017 4.387824 0.000000 4.813461 4.361220 0.000000 4.722025 4.325334 0.000000 4.634616 4.280522 0.000000 4.552103 4.227230 0.000000 4.475307 4.165987 0.000000 4.404990 4.097401 0.000000 4.341851 4.022155 0.000000 4.286518 3.940997 0.000000 4.239541 3.854732 0.000000 4.201386 3.764219 0.000000 4.172433 3.670356 0.000000 4.152970 3.574077 0.000000 4.143190 3.476339 0.000000 4.143190 3.378112 0.000000 4.152970 3.280374 0.000000 4.172433 3.184095 0.000000 4.201386 3.090232 0.000000 4.239541 2.999719 0.000000 4.286518 2.913454 0.000000 4.341851 2.832296 0.000000 4.404990 2.757050 0.000000 4.475307 2.688464 0.000000 4.552103 2.627221 0.000000 4.634616 2.573929 0.000000 4.722025 2.529117 0.000000 4.813461 2.493231 0.000000 4.908017 2.466627 0.000000 5.004751 2.449570 0.000000 5.102703 2.442230 0.000000 5.200899 2.444678 0.000000 5.298363 2.456892 0.000000 5.394127 2.478750 0.000000 5.487238 2.510033 0.000000 5.576772 2.550433 0.000000 5.661839 2.599546 0.000000 5.741593 2.656885 0.000000 5.815241 2.721880 0.000000 5.882052 2.793885 0.000000 5.941362 2.872185 0.000000 5.992581 2.956001 0.000000 6.035200 3.044500 0.000000 6.068795 3.136802 0.000000 6.093033 3.231992 0.000000 6.107673 3.329121 0.000000 1.769264 -3.541701 0.000000 2.749967 -3.541701 0.000000 3.730669 -3.541701 0.000000 4.711371 -3.541701 0.000000 5.692074 -3.541701 0.000000 6.672776 -3.541701 0.000000 7.653479 -3.541701 0.000000 8.634181 -3.541701 0.000000 9.614883 -3.541701 0.000000 10.595586 -3.541701 0.000000 11.576288 -3.541701 0.000000 12.556991 -3.541701 0.000000 13.537693 -3.541701 0.000000 14.518395 -3.541701 0.000000 15.499098 -3.541701 0.000000 16.479801 -3.541701 0.000000 17.460503 -3.541701 0.000000 18.441206 -3.541701 0.000000 19.421907 -3.541701 0.000000 20.402611 -3.541701 0.000000 21.383312 -3.541701 0.000000 22.364016 -3.541701 0.000000 23.344717 -3.541701 0.000000 24.325420 -3.541701 0.000000 25.306122 -3.541701 0.000000 26.286825 -3.541701 0.000000 27.267527 -3.541701 0.000000 28.248230 -3.541701 0.000000 29.228931 -3.541701 0.000000 30.209635 -3.541701 0.000000 31.190336 -3.541701 0.000000 32.171040 -3.541701 0.000000 33.151741 -3.541701 0.000000 34.132442 -3.541701 0.000000 35.113148 -3.541701 0.000000 36.093849 -3.541701 0.000000 37.074551 -3.541701 0.000000 0.788562 4.099896 0.000000 0.788562 3.144697 0.000000 0.788562 2.189497 0.000000 0.788562 1.234297 0.000000 0.788562 0.279098 0.000000 0.788562 -0.676102 0.000000 0.788562 -1.631302 0.000000 0.788562 -2.586501 0.000000 38.055252 -2.586501 0.000000 38.055252 -1.631302 0.000000 38.055252 -0.676102 0.000000 38.055252 0.279098 0.000000 38.055252 1.234297 0.000000 38.055252 2.189497 0.000000 38.055252 3.144697 0.000000 38.055252 4.099896 0.000000 37.074551 5.055096 0.000000 36.093849 5.055096 0.000000 35.113148 5.055096 0.000000 34.132442 5.055096 0.000000 33.151741 5.055096 0.000000 32.171040 5.055096 0.000000 31.190336 5.055096 0.000000 30.209635 5.055096 0.000000 29.228931 5.055096 0.000000 28.248230 5.055096 0.000000 27.267527 5.055096 0.000000 26.286825 5.055096 0.000000 25.306122 5.055096 0.000000 24.325420 5.055096 0.000000 23.344717 5.055096 0.000000 22.364016 5.055096 0.000000 21.383312 5.055096 0.000000 20.402611 5.055096 0.000000 19.421907 5.055096 0.000000 18.441206 5.055096 0.000000 17.460503 5.055096 0.000000 16.479801 5.055096 0.000000 15.499098 5.055096 0.000000 14.518395 5.055096 0.000000 13.537693 5.055096 0.000000 12.556991 5.055096 0.000000 11.576288 5.055096 0.000000 10.595586 5.055096 0.000000 9.614883 5.055096 0.000000 8.634181 5.055096 0.000000 7.653479 5.055096 0.000000 6.672776 5.055096 0.000000 5.692074 5.055096 0.000000 4.711371 5.055096 0.000000 3.730669 5.055096 0.000000 2.749967 5.055096 0.000000 1.769264 5.055096 0.000000 6.189715 3.585859 0.000000 6.176768 3.269630 0.000000 6.435733 1.812304 0.000000 7.004026 2.495821 0.000000 5.564259 2.458710 0.000000 6.753478 2.350961 0.000000 6.528847 2.075930 0.000000 12.004927 -2.692546 0.000000 11.985716 4.217142 0.000000 6.089997 2.965004 0.000000 5.832367 2.625197 0.000000 37.130657 0.793137 0.000000 31.757395 -2.687752 0.000000 14.994016 -2.680556 0.000000 17.945354 -2.686939 0.000000 20.892962 -2.692388 0.000000 23.835119 -2.692382 0.000000 26.777170 -2.720520 0.000000 4.315012 -2.815990 0.000000 29.793711 4.085679 0.000000 32.548649 4.356808 0.000000 19.897385 4.214251 0.000000 25.785833 4.224770 0.000000 23.028114 4.129418 0.000000 16.970152 4.205783 0.000000 5.981955 2.791097 0.000000 6.629331 2.223286 0.000000 9.011394 -2.696939 0.000000 6.142843 3.795060 0.000000 1.574987 0.821544 0.000000 6.182425 -2.692388 0.000000 10.196263 4.254428 0.000000 34.622795 -2.692388 0.000000 13.893719 4.111177 0.000000 29.717838 -2.621011 0.000000 27.714117 4.193245 0.000000 34.512337 4.238009 0.000000 1.599302 2.703133 0.000000 1.676610 -1.324869 0.000000 37.318195 -1.160273 0.000000 37.141323 2.582494 0.000000 7.992999 4.442899 0.000000 7.365469 2.561532 0.000000 7.181325 2.545936 0.000000 7.548839 2.542986 0.000000 4.174551 3.957538 0.000000 4.527119 4.339203 0.000000 4.672372 4.478637 0.000000 6.010717 4.076903 0.000000 5.737767 4.315644 0.000000 5.558182 4.391771 0.000000 5.403461 4.463689 0.000000 5.172290 4.485374 0.000000 2.359993 4.218599 0.000000 4.053613 3.540026 0.000000 2.300901 -2.708731 0.000000 36.645027 -2.732530 0.000000 36.539848 4.161946 0.000000 9.102880 4.414299 0.000000 8.558351 3.593841 0.000000 7.962249 2.328187 0.000000 7.811279 2.437599 0.000000 4.945874 4.492541 0.000000 1.584513 1.632365 0.000000 2.245950 1.180239 0.000000 2.286373 0.493770 0.000000 2.809488 0.893881 0.000000 2.806891 1.453220 0.000000 4.104183 3.111783 0.000000 4.382648 2.663980 0.000000 4.241857 2.823476 0.000000 3.276814 1.215273 0.000000 5.047755 2.363385 0.000000 4.747844 2.445979 0.000000 5.253975 2.368250 0.000000 4.040518 3.320949 0.000000 3.318758 0.684605 0.000000 3.759753 1.059658 0.000000 3.791122 0.511362 0.000000 4.202219 0.823783 0.000000 4.220538 0.347292 0.000000 4.586906 0.586666 0.000000 6.430615 1.442432 0.000000 6.411892 1.630383 0.000000 4.628236 0.182668 0.000000 4.949566 0.425947 0.000000 6.524422 1.181709 0.000000 4.916069 0.798934 0.000000 5.272007 0.692404 0.000000 5.300704 0.306083 0.000000 5.181611 1.007630 0.000000 4.910829 1.120436 0.000000 5.159410 1.299792 0.000000 5.390382 1.184206 0.000000 5.386182 1.412197 0.000000 4.919713 1.409725 0.000000 5.575130 0.523991 0.000000 6.690748 0.949618 0.000000 5.623878 0.197816 0.000000 5.605337 1.328571 0.000000 5.557131 1.532642 0.000000 5.385738 1.618889 0.000000 5.546161 1.718421 0.000000 5.700213 1.640847 0.000000 5.692708 1.800120 0.000000 5.829830 1.734402 0.000000 5.812983 1.880147 0.000000 5.843433 1.583640 0.000000 3.839566 0.034218 0.000000 3.252358 1.703888 0.000000 5.852130 0.424446 0.000000 5.971080 0.131386 0.000000 5.676700 -0.142750 0.000000 6.027102 -0.249357 0.000000 6.296358 -0.012557 0.000000 6.993885 0.743875 0.000000 6.838129 0.844719 0.000000 6.372097 -0.356443 0.000000 6.646226 -0.074788 0.000000 6.710935 -0.446576 0.000000 6.966012 -0.200689 0.000000 7.374871 0.680470 0.000000 7.176657 0.701207 0.000000 7.064294 -0.559201 0.000000 7.309717 -0.322550 0.000000 7.417691 -0.663192 0.000000 7.673815 -0.360354 0.000000 7.726708 0.773927 0.000000 7.550378 0.720208 0.000000 5.734798 -0.526472 0.000000 5.692585 1.944877 0.000000 5.807072 2.016809 0.000000 5.920963 1.956983 0.000000 5.916725 2.080325 0.000000 6.022561 2.026330 0.000000 6.014400 2.141372 0.000
[...]
<CellData Scalars="Label">
<DataArray type="Int32" Name="Label" format="ascii">
1 1 1 1 1 1 1 1 1 1 1 1 1 1 1 1 1 1 1 1 1 1 1 1 1 1 1 1 1 1 1 1 1 1 1 1 1 1 1 1 1 1 1 1 1 1 1 1 1 1 1 1 1 1 1 1 1 1 1 1 1 1 1 1 1 1 1 1 1 1 1 1 1 1 1 1 1 1 1 1 1 1 1 1 1 1 1 1 1 1 1 1 1 1 1 1 1 1 1 1 1 1 1 1 1 1 1 1 1 1 1 1 1 1 1 1 1 1 1 1 1 1 1 1 1 1 1 1 1 1 1 1 1 1 1 1 1 1 1 1 1 1 1 1 1 1 1 1 1 1 1 1 1 1 1 1 1 1 1 1 1 1 1 1 1 1 1 1 1 1 1 1 1 1 1 1 1 1 1 1 1 1 1 1 1 1 1 1 1 1 1 1 1 1 1 1 1 1 1 1 1 1 1 1 1 1 1 1 1 1 1 1 1 1 1 1 1 1 1 1 1 1 1 1 1 1 1 1 1 1 1 1 1 1 1 1 1 1 1 1 1 1 1 1 1 1 1 1 1 1 1 1 1 1 1 1 1 1 1 1 1 1 1 1 1 1 1 1 1 1 1 1 1 1 1 1 1 1 1 1 1 1 1 1 1 1 1 1 1 1 1 1 1 1 1 1 1 1 1 1 1 1 1 1 1 1 1 1 1 1 1 1 1 1 1 1 1 1 1 1 1 1 1 1 1 1 1 1 1 1 1 1 1 1 1 1 1 1 1 1 1 1 1 1 1 1 1 1 1 1 1 1 1 1 1 1 1 1 1 1 1 1 1 1 1 1 1 1 1 1 1 1 1 1 1 1 1 1 1 1 1 1 1 1 1 1 1 1 1 1 1 1 1 1 1 1 1 1 1 1 1 1 1 1 1 1 1 1 1 1 1 1 1 1 1 1 1 1 1 1 1 1 1 1 1 1 1 1 1 1 1 1 1 1 1 1 1 1 1 1 1 1 1 1 1 1 1 1 1 1 1 1 1 1 1 1 1 1 1 1 1 1 1 1 1 1 1 1 1 1 1 1 1 1 1 1 1 1 1 1 1 1 1 1 1 1 1 1 1 1 1 1 1 1 1 1 1 1 1 1 1 1 1 1 1 1 1 1 1 1 1 1 1 1 1 1 1 1 1 1 1 1 1 1 1 1 1 1 1 1 1 1 1 1 1 1 1 1 1 1 1 1 1 1 1 1 1 1 1 1 1 1 1 1 1 1 1 1 1 1 1 1 1 1 1 1 1 1 1 1 1 1 1 1 1 1 1 1 1 1 1 1 1 1 1 1 1 1 1 1 1 1 1 1 1 1 1 1 1 1 1 1 1 1 1 1 1 1 1 1 1 1 1 1 1 1 1 1 1 1 1 1 1 1 1 1 1 1 1 1 1 1 1 1 1 1 1 1 1 1 1 1 1 1 1 1 1 1 1 1 1 1 1 1 1 1 1 1 1 1 1 1 1 1 1 1 1 1 1 1 1 1 1 1 1 1 1 1 1 1 1 1 1 1 1 1 1 1 1 1 1 1 1 1 1 1 1 1 1 1 1 1 1 1 1 1 1 1 1 1 1 1 1 1 1 1 1 1 1 1 1 1 1 1 1 1 1 1 1 1 1 1 1 1 1 1 1 1 1 1 1 1 1 1 1 1 1 1 1 1 1 1 1 1 1 1 1 1 1 1 1 1 1 1 1 1 1 1 1 1 1 1 1 1 1 1 1 1 1 1 1 1 1 1 1 1 1 1 1 1 1 1 1 1 1 1 1 1 1 1 1 1 1 1 1 1 1 1 1 1 1 1 1 1 1 1 1 1 1 1 1 1 1 1 1 1 1 1 1 1 1 1 1 1 1 1 1 1 1 1 1 1 1 1 1 1 1 1 1 1 1 1 1 1 1 1 1 1 1 1 1 1 1 1 1 1 1 1 1 1 1 1 1 1 1 1 1 1 1 1 1 1 1 1 1 1 1 1 1 1 1 1 1 1 1 1 1 1 1 1 1 1 1 1 1 1 1 1 1 1 1 1 1 1 1 1 1 1 1 1 1 1 1 1 1 1 1 1 1 1 1 1 1 1 1 1 1 1 1 1 1 1 1 1 1 1 1 1 1 1 1 1 1 1 1 1 1 1 1 1 1 1 1 1 1 1 1 1 1 1 1 1 1 1 1 1 1 1 1 1 1 1 1 1 1 1 1 1 1 1 1 1 1 1 1 1 1 1 1 1 1 1 1 1 1 1 1 1 1 1 1 1 1 1 1 1 1 1 1 1 1 1 1 1 1 1 1 1 1 1 1 1 1 1 1 1 1 1 1 1 1 1 1 1 1 1 1 1 1 1 1 1 1 1 1 1 1 1 1 1 1 1 1 1 1 1 1 1 1 1 1 1 1 1 1 1 1 1 1 1 1 1 1 1 1 1 1 1 1 1 1 1 1 1 1 1 1 1 1 1 1 1 1 1 1 1 1 1 1 1 1 1 1 1 1 1 1 1 1 1 1 1 1 1 1 1 1 1 1 1 1 1 1 1 1 1 1 1 1 1 1 1 1 1 1 1 1 1 1 1 1 1 1 1 1 1 1 1 1 1 1 1 1 1 1 1 1 1 1 1 1 1 1 1 1 1 1 1 1 1 1 1 1 1 1 1 1 1 1 1 1 1 1 1 1 1 1 1 1 1 1 1 1 1 1 1 1 1 1 1 1 1 1 1 1 1 1 1 1 1 1 1 1 1 1 1 1 1 1 1 1 1 1 1 1 1 1 1 1 1 1 1 1 1 1 1 1 1 1 1 1 1 1 1 1 1 1 1 1 1 1 1 1 1 1 1 1 1 1 1 1 1 1 1 1 1 1 1 1 1 1 1 1 1 1 1 1 1 1 1 1 1 1 1 1 1 1 1 1 1 1 1 1 1 1 1 1 1 1 1 1 1 1 1 1 1 1 1 1 1 1 1 1 1 1 1 1 1 1 1 1 1 1 1 1 1 1 1 1 1 1 1 1 1 1 1 1 1 1 1 1 1 1 1 1 1 1 1 1 1 1 1 1 1 1 1 1 1 1 1 1 1 1 1 1 1 1 1 1 1 1 1 1 1 1 1 1 1 1 1 1 1 1 1 1 1 1 1 1 1 1 1 1 1 1 1 1 1 1 1 1 1 1 1 1 1 1 1 1 1 1 1 1 1 1 1 1 1 1 1 1 1 1 1 1 1 1 1 1 1 1 1 1 1 1 1 1 1 1 1 1 1 1 1 1 1 1 1 1 1 1 1 1 1 1 1 1 1 1 1 1 1 1 1 1 1 1 1 1 1 1 1 1 1 1 1 1 1 1 1 1 1 1 1 1 1 1 1 1 1 1 1 1 1 1 1 1 1 1 1 1 1 1 1 1 1 1 1 1 1 1 1 1 1 1 1 1 1 1 1 1 1 1 1 1 1 1 1 1 1 1 1 1 1 1 1 1 1 1 1 1 1 1 1 1 1 1 1 1 1 1 1 1 1 1 1 1 1 1 1 1 1 1 1 1 1 1 1 1 1 1 1 1 1 1 1 1 1 1 1 1 1 1 1 1 1 1 1 1 1 1 1 1 1 1 1 1 1 1 1 1 1 1 1 1 1 1 1 1 1 1 1 1 1 1 1 1 1 1 1 1 1 1 1 1 1 1 1 1 1 1 1 1 1 1 1 1 1 1 1 1 1 1 1 1 1 1 1 1 1 1 1 1 1 1 1 1 1 1 1 1 1 1 1 1 1 1 1 1 1 1 1 1 1 1 1 1 1 1 1 1 1 1 1 1 1 1 1 1 1 1 1 1 1 1 1 1 1 1 1 1 1 1 1 1 1 1 1 1 1 1 1 1 1 1 1 1 1 1 1 1 1 1 1 1 1 1 1 1 1 1 1 1 1 1 1 1 1 1 1 1 1 1 1 1 1 1 1 1 1 1 1 1 1 1 1 1 1 1 1 1 1 1 1 1 1 1 1 1 1 1 1 1 1 1 1 1 1 1 1 1 1 1 1 1 1 1 1 1 1 1 1 1 1 1 1 1 1 1 1 1 1 1 1 1 1 1 1 1 1 1 1 1 1 1 1 1 1 1 1 1 1 1 1 1 1 1 1 1 1 1 1 1 1 1 1 1 1 1 1 1 1 1 1 1 1 1 1 1 1 1 1 1 1 1 1 1 1 1 1 1 1 1 1 1 1 1 1 1 1 1 1 1 1 1 1 1 1 1 1 1 1 1 1 1 1 1 1 1 1 1 1 1 1 1 1 1 1 1 1 1 1 1 1 1 1 1 1 1 1 1 1 1 1 1 1 1 1 1 1 1 1 1 1 1 1 1 1 1 1 1 1 1 1 1 1 1 1 1 1 1 1 1 1 1 1 1 1 1 1 1 1 1 1 1 1 1 1 1 1 1 1 1 1 1 1 1 1 1 1 1 1 1 1 1 1 1 1 1 1 1 1 1 1 1 1 1 1 1 1 1 1 1 1 1 1 1 1 1 1 1 1 1 1 1 1 1 1 1 1 1 1 1 1 1 1 1 1 1 1 1 1 1 1 1 1 1 1 1 1 1 1 1 1 1 1 1 1 1 1 1 1 1 1 1 1 1 1 1 1 1 1 1 1 1 1 1 1 1 1 1 1 1 1 1 1 1 1 1 1 1 1 1 1 1 1 1 1 1 1 1 1 1 1 1 1 1 1 1 1 1 1 1 1 1 1 1 1 1 1 1 1 1 1 1 1 1 1 1 1 1 1 1 1 1 1 1 1 1 1 1 1 1 1 1 1 1 1 1 1 1 1 1 1 1 1 1 1 1 1 1 1 1 1 1 1 1 1 1 1 1 1 1 1 1 1 1 1 1 1 1 1 1 1 1 1 1 1 1 1 1 1 1 1 1 1 1 1 1 1 1 1 1 1 1 1 1 1 1 1 1 1 1 1 1 1 1 1 1 1 1 1 1 1 1 1 1 1 1 1 1 1 1 1 1 1 1 1 1 1 1 1 1 1 1 1 1 1 1 1 1 1 1 1 1 1 1 1 1 1 1 1 1 1 1 1 1 1 1 1 1 1 1 1 1 1 1 1 1 1 1 1 1 1 1 1 1 1 1 1 1 1 1 1 1 1 1 1 1 1 1 1 1 1 1 1 1 1 1 1 1 1 1 1 1 1 1 1 1 1 1 1 1 1 1 1 1 1 1 1 1 1 1 1 1 1 1 1 1 1 1 1 1 1 1 1 1 1 1 1 1 1 1 1 1 1 1 1 1 1 1 1 1 1 1 1 1 1 5 5 5 5 5 5 5 5 5 5 5 5 5 5 5 5 5 5 5 5 5 5 5 5 5 5 5 5 5 5 5 5 5 5 5 5 5 5 5 5 5 5 5 5 5 5 5 5 5 5 5 5 5 5 5 5 5 5 5 5 5 5 5 5 5 5 5 5 5 5 5 5 5 5 5 5 5 5 5 5 5 5 5 5 5 5 5 5 5 5 5 5 5 5 5 5 5 5 5 5 5 5 5 5 5 5 5 5 5 5 5 5 5 5 5 5 5 5 5 5 5 5 5 5 5 5 4 4 4 4 4 4 4 4 4 4 4 4 4 4 4 4 4 4 4 4 4 4 4 4 4 4 4 4 4 4 4 4 4 4 4 4 4 4 2 2 2 2 2 2 2 2 2 3 3 3 3 3 3 3 3 3 4 4 4 4 4 4 4 4 4 4 4 4 4 4 4 4 4 4 4 4 4 4 4 4 4 4 4 4 4 4 4 4 4 4 4 4 4 4 
</DataArray>
<DataArray type="Float64" Name="u" NumberOfComponents="1" format="ascii">
4.1314648722853298e-01 4.8032091287596285e-01 1.2037893689357246e-01 2.5646585339618722e-01 1.9289191839534747e+00 4.2212574725760199e-01 1.4957115678921437e-01 1.0742602955236009e-01 8.2515111285689891e-02 6.8172778656560518e-02 1.3934254208678700e+00 2.8129054574360651e-01 2.6288375505507555e-01 8.8675460843942822e-01 1.1557259916688594e+00 6.8589027207826980e-01 9.9850149599597882e-01 8.0983010153527574e-02 1.4501880774783016e+00 3.3960958199428021e-01 1.0055940895765829e+00 8.3711103195737768e-01 7.4972982119068499e-02 6.1025923910049396e-01 9.9695518848962850e-01 6.4179397675614003e-01 1.3698211554971480e+00 5.5811338592302295e-01 1.2418806154207354e+00 1.0011036371802584e+00 1.1700687418659721e+00 8.8745141092306690e-01 1.0004906471485793e+00 5.2033139432749520e-01 1.0057723982197144e+00 2.7015448045054791e-01 8.2659681761589243e-01 1.0148829819517188e-01 1.0047755039044792e+00 3.6931594685665640e-02 8.0536593056588357e-01 8.6594698473455176e-02 4.7052534389122741e-01 1.4152258803356701e+00 7.6211954548708105e-01 4.9825466174972388e-01 1.2008170422043456e+00 1.2722492742626731e-01 1.1987213249494721e+00 1.0005031645108453e+00 2.3307077381472852e-01 1.3310374048493068e+00 1.5748194845167585e-01 1.2385512685303210e-01 8.9836408895706182e-02 9.9732241386402309e-01 1.9225087658180300e+00 3.2420899955904103e-01 8.7454922993636552e-02 1.3169959392433928e-01 1.9931083356004065e-01 1.1725329127283495e+00 3.4493095019926270e-02 1.8669559391009807e+00 8.2132893104996357e-02 1.0129655508138122e-01 1.6113184636776695e-01 1.8988381457696979e+00 1.0402117650545409e-01 4.1697454591074068e-01 1.4246531403895105e-01 2.4466574686424755e-01 1.0273864782590754e-01 4.5639454555910564e-01 1.1601188892799952e+00 3.2398738026024632e-01 2.4003621064149039e-01 8.5352041440469373e-01 9.9993561328609215e-01 1.1005115808343952e-01 9.8706842763313877e-03 9.1274567747888113e-01 2.2257351078104864e-02 6.1938716553211914e-01 9.9723077918695169e-01 1.7843286884606824e-01 6.7518987199368641e-01 1.3877091218611755e+00 1.0000385656938784e+00 5.6420403547582698e-01 9.5942459247604295e-01 1.8370031357647862e-01 9.5733096548322161e-01 1.4729708628755922e-01 2.0459167804313932e-01 6.6876887000475405e-01 6.5593370636569406e-02 1.1916497317157315e-01 6.1382959342083665e-01 1.5862239764384067e-01 6.1974939842358334e-01 5.5267237752036673e-02 1.1382130303120665e-01 3.7386990044953233e-01 4.3975601726749602e-01 1.0206592880991303e+00 2.0649875653297363e+00 4.3260623096724160e-01 5.5144434264263698e-01 3.6426764263575007e-01 1.0770565375522120e-01 1.4679411816263882e-01 2.9906575855421463e-01 9.5402445675351766e-01 3.1986115770740342e-01 1.9545409300493100e+00 1.1521108829217424e+00 4.1059354230312972e-01 7.9290664527136612e-01 7.1187477172724778e-01 9.8467645813677063e-01 7.8011107611423358e-01 9.4638707550624335e-01 3.4108815634070144e-01 6.2900426075985827e-01 1.4947644092130885e+00 2.7126830532966099e-02 2.2508512091474344e+00 1.5856668731834461e-01 2.1820359624117058e+00 9.9682792101421658e-01 2.1080111435317433e-01 3.8764247541341446e-01 1.0008727461232414e+00 2.1180833790121020e-01 2.0602241608243936e+00 1.8235330901399205e-01 1.3905494080084391e-01 1.0009394917382641e+00 1.2604958362309013e+00 9.9974106815494701e-01 3.9354577421262155e-01 1.9851807587121275e+00 1.0004023087702627e+00 5.5024179469392344e-02 9.3303942410384910e-01 4.7954514194607500e-01 1.9876090325728904e-01 1.5846768813923102e+00 4.1617947035831016e-01 3.0952244337389655e-02 1.3901643523231813e-01 5.0543114266635203e-01 7.2319570257595633e-01 7.2357993381083840e-02 1.2251791011880525e-01 1.0004533758428884e+00 6.6646160768244633e-01 6.0326377260521347e-01 1.9131886655660563e-01 3.5140387625696029e-01 1.0788553168949349e+00 3.2782236000286652e-02 1.0474594396290036e+00 5.3382248062438922e-02 1.8102245808291224e+00 4.9960960941781374e-01 1.3073617276721264e-01 9.1491323425557891e-01 2.8295688732618418e-01 1.0324043586134861e+00 6.1658823063299457e-02 3.2840362959616488e-02 1.0502262570393937e+00 1.7584569804376380e+00 2.9679736742006879e-01 1.2444442650308579e-01 3.7758960166682655e-02 1.2451723531040835e+00 1.1657172277283998e+00 6.9357155345544291e-02 9.5871636219428358e-01 1.8647445647641345e-01 1.3225456928072803e+00 1.0002609804576055e+00 1.0556358257605343e+00 1.1029026898931129e+00 1.1107263459990514e-01 1.3420390624423395e+00 1.1422271933927371e-01 1.6982938069944686e+00 9.9559096289151738e-01 4.4300711194186410e-02 6.5454820127196034e-01 8.8985167612196436e-01 9.8669261198433666e-01 1.1198491210001289e+00 1.0814487950202900e+00 9.9620063597939978e-01 8.4144018405527199e-01 1.0012641999193648e+00 1.6476523408644034e-01 1.8079703623769397e-01 2.2601807468664670e-01 1.1014802221392674e+00 4.5433197191982710e-01 5.0445063470274454e-01 1.0041467910431003e+00 8.0142241527521724e-02 2.1008502596933629e-01 1.4498935147480747e+00 8.0283734618370839e-01 1.2052615525393726e+00 6.6455504062481152e-01 1.0003708515665051e+00 2.1890099276938035e+00 5.8919234673821340e-02 1.0006868065161121e+00 2.0047874392799769e-01 1.0444849444598510e+00 1.4377273111623343e+00 8.7206676781484038e-01 5.3113460339704732e-01 7.4611758126392580e-01 3.5065964037174091e-01 5.9905532499817982e-01 9.9940175099483775e-01 1.0034450167283340e+00 2.5100414325835546e-01 1.0174112260338573e+00 1.7311433154420561e-01 1.2206810802496040e+00 9.9581283711056523e-01 9.9691809394413444e-01 5.5132298952500369e-01 2.2191100853549273e-01 1.0702503940350057e+00 1.1163850821881067e+00 3.4870040116682477e-01 1.0510245583816979e+00 9.9487309453242734e-01 9.9929825489452972e-01 3.1912088749632250e-02 3.8092510322507316e-02 4.5364934763568399e-01 8.7714859140705548e-01 1.0804502968106999e+00 4.0336292164006783e-02 1.0008380061005924e+00 7.6023086054263522e-01 1.0095792989811698e+00 1.2677209706644650e+00 1.0052506328743889e+00 3.1323410386740802e-01 1.8805498327749193e-01 1.0309295033951702e+00 8.4647096721469528e-01 5.2903327509407372e-01 6.4445845918036371e-02 3.7249329694771777e-01 1.0107167576406144e+00 3.3444853242772948e-01 3.7200370177828033e-03 4.5234129813080104e-01 1.0003130069441959e+00 1.0001068147783974e+00 1.2292442314755411e-01 1.0365076615599389e-01 3.2530115896263506e-01 1.4410243631579014e-01 4.4297320281797281e-01 1.0006788223839556e+00 4.1884712058740226e-01 1.9870673228726592e+00 1.8478315437774029e-01 1.0020565229420220e+00 7.2809801221103221e-01 9.9980612515236889e-01 1.4990255213958990e+00 1.4435603544807366e-01 8.1065257448061800e-01 9.2517309209125487e-01 1.0069105491854464e+00 4.9980208541658788e-01 3.8090929697936959e-01 7.5966483267964513e-01 3.3542185299754385e-01 1.3029489167023010e+00 1.5279042306828958e+00 1.1419999519625466e+00 6.8890195871426840e-01 2.9799016393826461e-01 5.9539616192719656e-02 1.6390458705977984e-01 8.0527441838676472e-01 2.6736981136321436e-01 2.3233453076537761e-01 9.6500583180133181e-01 4.0374383026793503e-01 2.9531782992563138e-01 3.5967710396589463e-02 6.1255115661160875e-01 5.4750006986004385e-01 8.6945337409971332e-02 1.2508444104992748e-02 3.2715870069761543e-01 2.7439893793712100e-01 1.1872827813270903e-01 1.5740719095817135e+00 4.9781684366646450e-01 1.8253592838712018e-01 3.4372303826387990e-01 1.4816771624237257e-01 8.1915848445808181e-02 2.3469220994404399e-01 1.0674251489173650e+00 1.0551690983611384e+00 7.3614750280645702e-01 6.4752624034378237e-01 1.4533467490332358e-01 5.7489285253601441e-01 3.1779350952347640e-01 1.0983215156342807e+00 1.0657144713310069e+00 9.4043328855259928e-02 8.3028410119020013e-02 1.7797047027858253e+00 1.2244682124643032e+00 4.3580493956842214e-01 6.8788366318712296e-02 1.2601253361543048e+00 3.4987493029308137e-01 3.8697255131379493e-01 6.7655401085787076e-02 8.8934919113473143e-01 2.3733181596750104e+00 2.3340404566268256e+00 2.6415421776188963e-01 9.9200943019416532e-01 1.3815858872362088e+00 6.4818224840490046e-01 1.0562028198768090e+00 2.5753323193507360e-01 2.3718712819959170e-01 4.5269495108877322e-01 2.4432990060233603e-01 1.3741010088161743e-01 4.0543606610758132e-01 3.4173842122308791e-02 5.7657095013018256e-01 2.0747078230256100e-01 8.6900502084416309e-01 9.5130979869389531e-01 2.7406431948753841e-02 1.3772797993314417e-01 8.7700111571020345e-01 1.8549233940786833e-01 1.1076743050175260e+00 1.3117085288730133e+00 4.9751464399026515e-02 3.4061733833357366e-01 1.3996311510099721e-01 7.3582974550046920e-01 1.1493052993488068e-01 1.3795705362127766e-01 8.7313008386545921e-01 1.3673630076345971e+00 1.5433819545042904e-01 6.0200651960746887e-01 8.6196528734712907e-01 2.2360903300920443e+00 1.5853851132949631e-01 1.0971536404916868e+00 3.3814612694522334e-01 1.5495692075530998e-01 3.0230173268130256e-01 4.6489714045904240e-01 7.1011717875841518e-01 2.2730613964293428e-01 9.1777123616224268e-02 2.3296313466888280e-01 9.0713931571918494e-01 1.7396618752928211e-01 1.0204263680537511e+00 1.0039717499366556e+00 9.2897910455160615e-01 8.0652812725891010e-01 1.5440578461685286e-01 9.8283739348551924e-01 2.1832188745390302e-01 1.2549738859751598e+00 1.0622523148254486e+00 6.5987116635053245e-02 4.1631651227290678e-01 3.8613319599989931e-01 7.5118058341697269e-01 1.4335567709154892e-01 3.7613566370499250e-02 9.9407629749468862e-01 4.5069195008773966e-01 9.9280090515650254e-01 1.1931129251657101e-01 1.5488258256102599e-01 4.6900817883623946e-01 8.1481624347685100e-01 2.4597216362600462e-02 3.1288521845602502e-01 3.7862508588986876e-01 4.1624374393041022e-02 1.3573788094405987e+00 1.3663439980605874e-01 3.1712494187575485e-01 1.4227498579502301e-01 2.3510724892899404e+00 9.3797666304455141e-01 1.1303429334076820e-01 1.0552543191245478e-03 1.4263929595368557e-01 1.1918838105267859e-01 1.1245282604326798e+00 2.2931533420935934e-01 5.5411415680454446e-01 2.0418426254244026e-01 2.3166847272970266e+00 1.4663184850532065e+00 9.9645204207613269e-01 1.3276209205840006e-01 2.2038294322765967e-01 9.9574169601390983e-01 4.3472763011710636e-01 6.4222909240281331e-02 1.0433814029478556e+00 1.0343075672651763e+00 4.4837708994186842e-01 7.2019340698121170e-01 1.0000352415691198e+00 1.2618704436843766e+00 2.0664375731932494e-01 1.3551264935175438e+00 9.9543240079392414e-01 3.7260821000687683e-01 1.2489999852418476e+00 6.6563861618667908e-01 1.0577839979092585e-01 1.1484548317819669e+00 1.8422026343492202e+00 1.2343609752334353e-01 2.5871664092034952e-02 1.7267171621093530e-01 7.0724226726051151e-02 9.8704670138514627e-01 7.0523001301449562e-01 7.8275469269534076e-02 1.0165842317443292e+00 8.6280558847624284e-02 1.9381931906879729e-02 1.4218736789085895e-01 6.4195749510052202e-01 8.8535642723184788e-02 1.1695591495926543e-01 6.4157101170091257e-01 1.4095253612252115e-01 5.8020274868099811e-02 2.1243308763358015e-01 1.4433635589832461e+00 2.8858583520829140e-01 1.4299514007877183e+00 2.7932931008294359e-01 8.0983453850866208e-02 7.2220058519107178e-02 1.2434752640322744e+00 1.8570993283596782e-01 6.0645228741010110e-02 1.0055068164905827e+00 2.2128884153417436e+00 1.5903435752410144e-01 3.9379369263899411e-01 7.1701346523534576e-02 4.2240322332919183e-01 1.9965755474054176e+00 1.1419220245594805e-01 4.3289472030893592e-03 9.9784747663144624e-01 3.1135573675129768e-01 1.9177001645159426e+00 1.1472246600962523e+00 3.0974025081527895e-01 1.2668858994559065e-01 9.9955694638759018e-01 3.0577473898665763e-01 9.3141493386677965e-01 1.4698709874080655e+00 2.4899414935894640e-01 2.4713870542990657e-01 1.7548644305679395e-01 1.8625844549024123e-01 9.9946179038396243e-01 1.1695727695151819e+00 4.2324026262922754e-01 2.0490459062535604e-01 1.9064761627187055e-01 9.2235017248599879e-02 2.0065451806406336e+00 1.3058438972917852e+00 1.3982348685983574e+00 7.3313897026853717e-02 1.0616242630977768e-01 4.5284403413876972e-01 2.9972844208721441e-04 3.9915070476080694e-01 2.5807790811392817e-01 1.3759642593579596e-01 1.7078312013592511e-01 6.2627295828488638e-02 1.0607347560710483e+00 1.3914445523644589e-01 1.6417602275905514e+00 1.0219028321978796e+00 1.4241852213206035e-01 1.5992442749683550e-01 9.9989797208509135e-01 3.1094192358219930e-01 1.3567242072563807e-01 1.5256222126249838e-01 1.4235463384854719e-01 5.7992153500153554e-01 4.6679223933027114e-01 1.4796419604929112e-01 2.6531839306314177e-02 5.2281754622830590e-01 1.0000973315523591e+00 3.6153545444177876e-01 6.6492824038653142e-02 2.2845400714719111e-01 1.5320312224025706e-01 9.8433602303280687e-01 1.0227229369733466e+00 2.3039737593666404e-01 2.0093344114806172e-01 7.0106506530117307e-01 3.0392829263170429e-01 2.3662497373219432e-02 1.5093033949331608e-01 1.1877677362082142e+00 1.4286094849505948e-01 3.7575438412470998e-02 2.4405727124198102e+00 2.0152635607474689e+00 5.5744405865395280e-02 3.9873912434870329e-01 1.7329820285114774e+00 2.1271281114477313e-02 1.6442201087628452e+00 1.4308025127634871e+00 4.1544895503628032e-01 1.5507951028261470e-02 8.1363474418476980e-02 2.2340398509189723e-02 2.3042013649306398e-01 1.4578587491843986e-01 9.9682152621228415e-01 1.0005261117041493e+00 3.7731966790109650e-02 1.9869027856250551e-01 2.8953488971553831e-01 5.6001880942014881e-01 6.2463660169821841e-02 9.4840214504974618e-01 9.5165006699373875e-03 3.5896082098851700e-02 3.0330364376147756e-01 8.9736784308564133e-02 1.1043421150996602e+00 9.9921632142114469e-01 1.5976245315747584e-01 1.2065221660596190e-01 3.0019504341417796e-01 7.5853102278854057e-02 6.2192094639303662e-02 1.3286031339790780e-01 1.2907263779401904e-01 5.0538436857004787e-01 2.2307561983530375e+00 1.6856033502040577e+00 1.2267215450620730e-01 1.5833631258353201e-02 1.1833560294157344e-01 2.1267509138136327e+00 9.2954339557893806e-01 6.7512348710473513e-01 1.4267496937199852e-02 1.4807814406802255e-01 9.6964197581230405e-01 7.5084865704980810e-02 5.4998639976892881e-02 4.0811256190174655e-01 4.2653395929682825e-01 5.7385137108252438e-01 4.6446162922014651e-02 1.0005316224784941e+00 3.2980461283928245e-02 9.2174432468482628e-02 1.0147004769128729e+00 1.1277933931200299e+00 9.6095624376218020e-02 1.2725961017955051e-01 1.5647597206661890e-01 1.8299809708903464e-01 9.9543556061906757e-01 1.4758762514573948e-01 9.9715412927298552e-01 9.9785429578581430e-01 1.5236169181861731e-01 1.1141344019966824e-01 9.3058326465513125e-02 9.0503209593696532e-01 1.2874738393588064e-01 1.0464177349408534e+00 1.7558510825091928e-01 1.9846247042005685e-02 2.5345346427937882e-01 3.9449092689759124e-01 4.7612706222741885e-01 1.5136719665439577e-01 9.9953651882940098e-01 1.3959670206706692e-01 1.7007072847488685e-02 6.0395461732369449e-01 1.4627901870329463e-01 5.3946959338450107e-01 2.8936814269091327e-01 2.5384171969864394e-01 1.7297096306156061e+00 1.0008740256426432e+00 1.1372877687712515e-01 9.9906587322729823e-01 1.3547529160564703e-01 1.3119970813178787e+00 2.