<?xml version="1.0"?>
<VTKFile type="UnstructuredGrid"  byte_order="LittleEndian">
<UnstructuredGrid>
<Piece NumberOfPoints="837" NumberOfCells=" 1674">
<Points>
<DataArray type="Float32" NumberOfComponents="3" format="ascii">
21.284521 -0.663759 0.000000 0.370705 -3.612663 0.000000 35.625248 -3.612663 0.000000 0.370705 4.440523 0.000000 35.625248 4.440523 0.000000 21.281279 -0.598800 0.000000 21.271585 -0.534486 0.000000 21.255537 -0.471457 0.000000 21.233292 -0.410340 0.000000 21.205072 -0.351741 0.000000 21.171158 -0.296243 0.000000 21.131886 -0.244397 0.000000 21.087648 -0.196719 0.000000 21.038881 -0.153683 0.000000 20.986073 -0.115717 0.000000 20.929747 -0.083197 0.000000 20.870462 -0.056446 0.000000 20.808809 -0.035732 0.000000 20.745399 -0.021259 0.000000 20.680864 -0.013172 0.000000 20.615845 -0.011550 0.000000 20.550987 -0.016411 0.000000 20.486935 -0.027705 0.000000 20.424326 -0.045320 0.000000 20.363781 -0.069082 0.000000 20.305904 -0.098754 0.000000 20.251268 -0.134041 0.000000 20.200418 -0.174593 0.000000 20.153858 -0.220007 0.000000 20.112051 -0.269830 0.000000 20.075413 -0.323569 0.000000 20.044308 -0.380688 0.000000 20.019043 -0.440621 0.000000 19.999872 -0.502772 0.000000 19.986986 -0.566522 0.000000 19.980509 -0.631239 0.000000 19.980509 -0.696279 0.000000 19.986986 -0.760996 0.000000 19.999872 -0.824746 0.000000 20.019043 -0.886897 0.000000 20.044308 -0.946830 0.000000 20.075413 -1.003949 0.000000 20.112051 -1.057688 0.000000 20.153858 -1.107512 0.000000 20.200418 -1.152925 0.000000 20.251268 -1.193477 0.000000 20.305904 -1.228764 0.000000 20.363781 -1.258436 0.000000 20.424326 -1.282198 0.000000 20.486935 -1.299813 0.000000 20.550987 -1.311107 0.000000 20.615845 -1.315968 0.000000 20.680864 -1.314346 0.000000 20.745399 -1.306259 0.000000 20.808809 -1.291786 0.000000 20.870462 -1.271072 0.000000 20.929747 -1.244322 0.000000 20.986073 -1.211802 0.000000 21.038881 -1.173835 0.000000 21.087648 -1.130799 0.000000 21.131886 -1.083121 0.000000 21.171158 -1.031276 0.000000 21.205072 -0.975777 0.000000 21.233292 -0.917178 0.000000 21.255537 -0.856061 0.000000 21.271585 -0.793032 0.000000 21.281279 -0.728718 0.000000 1.349998 -3.612663 0.000000 2.329291 -3.612663 0.000000 3.308583 -3.612663 0.000000 4.287876 -3.612663 0.000000 5.267169 -3.612663 0.000000 6.246462 -3.612663 0.000000 7.225755 -3.612663 0.000000 8.205048 -3.612663 0.000000 9.184340 -3.612663 0.000000 10.163633 -3.612663 0.000000 11.142926 -3.612663 0.000000 12.122219 -3.612663 0.000000 13.101512 -3.612663 0.000000 14.080805 -3.612663 0.000000 15.060098 -3.612663 0.000000 16.039391 -3.612663 0.000000 17.018682 -3.612663 0.000000 17.997976 -3.612663 0.000000 18.977268 -3.612663 0.000000 19.956562 -3.612663 0.000000 20.935854 -3.612663 0.000000 21.915148 -3.612663 0.000000 22.894440 -3.612663 0.000000 23.873734 -3.612663 0.000000 24.853025 -3.612663 0.000000 25.832319 -3.612663 0.000000 26.811611 -3.612663 0.000000 27.790905 -3.612663 0.000000 28.770197 -3.612663 0.000000 29.749491 -3.612663 0.000000 30.728783 -3.612663 0.000000 31.708076 -3.612663 0.000000 32.687370 -3.612663 0.000000 33.666660 -3.612663 0.000000 34.645954 -3.612663 0.000000 0.370705 3.545724 0.000000 0.370705 2.650926 0.000000 0.370705 1.756128 0.000000 0.370705 0.861329 0.000000 0.370705 -0.033469 0.000000 0.370705 -0.928267 0.000000 0.370705 -1.823066 0.000000 0.370705 -2.717864 0.000000 35.625248 -2.717864 0.000000 35.625248 -1.823066 0.000000 35.625248 -0.928267 0.000000 35.625248 -0.033469 0.000000 35.625248 0.861329 0.000000 35.625248 1.756128 0.000000 35.625248 2.650926 0.000000 35.625248 3.545724 0.000000 34.645954 4.440523 0.000000 33.666660 4.440523 0.000000 32.687370 4.440523 0.000000 31.708076 4.440523 0.000000 30.728783 4.440523 0.000000 29.749491 4.440523 0.000000 28.770197 4.440523 0.000000 27.790905 4.440523 0.000000 26.811611 4.440523 0.000000 25.832319 4.440523 0.000000 24.853025 4.440523 0.000000 23.873734 4.440523 0.000000 22.894440 4.440523 0.000000 21.915148 4.440523 0.000000 20.935854 4.440523 0.000000 19.956562 4.440523 0.000000 18.977268 4.440523 0.000000 17.997976 4.440523 0.000000 17.018682 4.440523 0.000000 16.039391 4.440523 0.000000 15.060098 4.440523 0.000000 14.080805 4.440523 0.000000 13.101512 4.440523 0.000000 12.122219 4.440523 0.000000 11.142926 4.440523 0.000000 10.163633 4.440523 0.000000 9.184340 4.440523 0.000000 8.205048 4.440523 0.000000 7.225755 4.440523 0.000000 6.246462 4.440523 0.000000 5.267169 4.440523 0.000000 4.287876 4.440523 0.000000 3.308583 4.440523 0.000000 2.329291 4.440523 0.000000 1.349998 4.440523 0.000000 16.327236 3.613192 0.000000 16.510830 -2.746684 0.000000 24.264635 3.632999 0.000000 24.316256 -2.797942 0.000000 1.216765 0.505004 0.000000 34.905388 0.420690 0.000000 6.741556 3.572623 0.000000 29.270941 -2.878431 0.000000 10.768821 3.519564 0.000000 13.469690 3.503922 0.000000 27.314459 3.600224 0.000000 8.690105 -2.758604 0.000000 4.775287 -2.803766 0.000000 31.272568 3.651570 0.000000 12.589676 -2.747654 0.000000 22.354807 3.578938 0.000000 19.437494 3.617971 0.000000 3.829687 3.615373 0.000000 32.197723 -2.764570 0.000000 26.188656 -2.727647 0.000000 14.601719 -2.736760 0.000000 18.343912 -2.870007 0.000000 29.305014 3.621420 0.000000 8.694695 3.617805 0.000000 10.643914 -2.753572 0.000000 6.732769 -2.764946 0.000000 33.176121 3.620121 0.000000 2.824268 -2.766645 0.000000 22.369061 -2.839781 0.000000 1.142822 2.105139 0.000000 34.857941 -1.353439 0.000000 20.366859 -2.897952 0.000000 20.575453 -1.386129 0.000000 34.865952 2.195823 0.000000 1.086193 -1.382459 0.000000 1.759096 3.675759 0.000000 34.166500 -2.675197 0.000000 21.416880 -3.076160 0.000000 20.795216 -1.359978 0.000000 20.945354 -2.191589 0.000000 19.411087 -2.876112 0.000000 18.984377 -2.118382 0.000000 20.248360 -1.269019 0.000000 20.360086 -1.331204 0.000000 20.137810 -1.170540 0.000000 23.430960 -2.791632 0.000000 23.925180 -2.068260 0.000000 24.693998 -2.029166 0.000000 24.240871 -1.384668 0.000000 23.484123 -1.422095 0.000000 23.854851 -0.789092 0.000000 24.552851 -0.731452 0.000000 23.207891 -0.805870 0.000000 23.478769 -0.298610 0.000000 22.873281 -0.339133 0.000000 23.166048 0.150647 0.000000 22.625223 0.128238 0.000000 21.318146 -0.489073 0.000000 22.891125 0.598483 0.000000 22.342571 0.562405 0.000000 21.239445 -0.293802 0.000000 23.448790 0.615402 0.000000 22.677217 -0.814449 0.000000 21.238834 -1.035627 0.000000 21.319649 -0.838761 0.000000 21.341551 -0.699166 0.000000 22.615965 1.038210 0.000000 22.108744 1.003360 0.000000 21.879351 0.588349 0.000000 21.624533 0.943348 0.000000 20.989882 -0.043862 0.000000 21.108217 -0.131887 0.000000 21.830660 1.392106 0.000000 21.371233 1.326254 0.000000 21.198257 0.923680 0.000000 20.721716 0.044876 0.000000 20.863049 0.014655 0.000000 20.951468 1.279969 0.000000 21.098665 1.698420 0.000000 20.651855 1.597993 0.000000 20.536512 1.176391 0.000000 20.508718 0.035970 0.000000 20.236122 1.493572 0.000000 20.119976 1.073367 0.000000 19.839836 1.398859 0.000000 19.723228 1.025787 0.000000 20.308632 -0.030466 0.000000 19.437029 1.322187 0.000000 19.328827 0.935978 0.000000 20.132887 -0.154828 0.000000 18.997969 1.242411 0.000000 18.901379 0.731015 0.000000 18.498684 1.143294 0.000000 18.374193 0.635933 0.000000 17.952160 1.030976 0.000000 17.858509 0.379650 0.000000 17.312284 0.937112 0.000000 18.774780 0.303796 0.000000 20.007910 -0.323859 0.000000 17.128517 0.241020 0.000000 16.613184 0.764197 0.000000 16.410477 0.017903 0.000000 15.855609 0.595375 0.000000 17.651226 -0.322938 0.000000 18.182837 1.663985 0.000000 19.151575 1.674500 0.000000 20.781099 2.068618 0.000000 19.939535 0.775425 0.000000 15.633698 -0.172378 0.000000 15.050249 0.420290 0.000000 15.295672 1.218764 0.000000 14.459182 1.043431 0.000000 14.203252 0.204318 0.000000 13.580943 0.851468 0.000000 13.323701 -0.024936 0.000000 12.679888 0.648873 0.000000 12.418945 -0.250983 0.000000 11.758957 0.421999 0.000000 19.972681 1.753351 0.000000 12.035256 1.340266 0.000000 11.107699 1.122333 0.000000 10.838293 0.148146 0.000000 10.171685 0.894683 0.000000 9.904624 -0.079774 0.000000 9.229869 0.672709 0.000000 8.953286 -0.249450 0.000000 8.282628 0.458857 0.000000 21.304148 2.179639 0.000000 8.001216 -0.436592 0.000000 7.334473 0.243201 0.000000 16.834084 1.532816 0.000000 7.614518 1.170931 0.000000 6.666209 0.946865 0.000000 6.387375 0.015590 0.000000 5.721313 0.721164 0.000000 5.439534 -0.191783 0.000000 4.780055 0.496059 0.000000 4.500155 -0.409224 0.000000 3.842975 0.272493 0.000000 5.064847 1.380441 0.000000 3.559953 -0.589174 0.000000 16.215576 -0.764246 0.000000 20.940695 2.608986 0.000000 13.955438 -0.628546 0.000000 14.714737 1.879200 0.000000 9.490424 1.776152 0.000000 9.581286 -1.045156 0.000000 15.566275 2.047213 0.000000 6.057269 -0.988084 0.000000 15.419359 -0.968751 0.000000 2.920101 0.057913 0.000000 3.191284 0.954259 0.000000 15.041072 2.772355 0.000000 11.420112 2.029346 0.000000 12.315945 2.248125 0.000000 6.946345 1.873748 0.000000 7.870511 2.046676 0.000000 2.649853 -0.803374 0.000000 21.544600 2.697596 0.000000 21.918165 2.227062 0.000000 20.366304 2.473693 0.000000 20.533175 3.091554 0.000000 4.183638 -1.325415 0.000000 15.975120 -1.517114 0.000000 16.834845 -1.392339 0.000000 22.934669 -2.141351 0.000000 22.873617 -1.212340 0.000000 22.446384 -1.146283 0.000000 22.272240 -0.838458 0.000000 22.087946 -1.089727 0.000000 21.100557 -1.206406 0.000000 20.997715 -1.281273 0.000000 21.932604 -0.825367 0.000000 21.781055 -1.043672 0.000000 21.907869 -1.313266 0.000000 22.098398 -0.585485 0.000000 21.788988 -0.560767 0.000000 21.936590 -0.364917 0.000000 21.633593 -1.269752 0.000000 21.724234 -1.533236 0.000000 21.414862 -1.477988 0.000000 21.705992 -0.336146 0.000000 22.103848 -1.612441 0.000000 21.810472 -0.160366 0.000000 21.607796 -0.144549 0.000000 21.543428 -1.794035 0.000000 21.550203 -1.064084 0.000000 21.692896 0.034414 0.000000 21.498552 0.031822 0.000000 21.586676 -0.597010 0.000000 21.988997 0.060542 0.000000 21.3968
[...]
<CellData Scalars="Label">
<DataArray type="Int32" Name="Label" format="ascii">
1 1 1 1 1 1 1 1 1 1 1 1 1 1 1 1 1 1 1 1 1 1 1 1 1 1 1 1 1 1 1 1 1 1 1 1 1 1 1 1 1 1 1 1 1 1 1 1 1 1 1 1 1 1 1 1 1 1 1 1 1 1 1 1 1 1 1 1 1 1 1 1 1 1 1 1 1 1 1 1 1 1 1 1 1 1 1 1 1 1 1 1 1 1 1 1 1 1 1 1 1 1 1 1 1 1 1 1 1 1 1 1 1 1 1 1 1 1 1 1 1 1 1 1 1 1 1 1 1 1 1 1 1 1 1 1 1 1 1 1 1 1 1 1 1 1 1 1 1 1 1 1 1 1 1 1 1 1 1 1 1 1 1 1 1 1 1 1 1 1 1 1 1 1 1 1 1 1 1 1 1 1 1 1 1 1 1 1 1 1 1 1 1 1 1 1 1 1 1 1 1 1 1 1 1 1 1 1 1 1 1 1 1 1 1 1 1 1 1 1 1 1 1 1 1 1 1 1 1 1 1 1 1 1 1 1 1 1 1 1 1 1 1 1 1 1 1 1 1 1 1 1 1 1 1 1 1 1 1 1 1 1 1 1 1 1 1 1 1 1 1 1 1 1 1 1 1 1 1 1 1 1 1 1 1 1 1 1 1 1 1 1 1 1 1 1 1 1 1 1 1 1 1 1 1 1 1 1 1 1 1 1 1 1 1 1 1 1 1 1 1 1 1 1 1 1 1 1 1 1 1 1 1 1 1 1 1 1 1 1 1 1 1 1 1 1 1 1 1 1 1 1 1 1 1 1 1 1 1 1 1 1 1 1 1 1 1 1 1 1 1 1 1 1 1 1 1 1 1 1 1 1 1 1 1 1 1 1 1 1 1 1 1 1 1 1 1 1 1 1 1 1 1 1 1 1 1 1 1 1 1 1 1 1 1 1 1 1 1 1 1 1 1 1 1 1 1 1 1 1 1 1 1 1 1 1 1 1 1 1 1 1 1 1 1 1 1 1 1 1 1 1 1 1 1 1 1 1 1 1 1 1 1 1 1 1 1 1 1 1 1 1 1 1 1 1 1 1 1 1 1 1 1 1 1 1 1 1 1 1 1 1 1 1 1 1 1 1 1 1 1 1 1 1 1 1 1 1 1 1 1 1 1 1 1 1 1 1 1 1 1 1 1 1 1 1 1 1 1 1 1 1 1 1 1 1 1 1 1 1 1 1 1 1 1 1 1 1 1 1 1 1 1 1 1 1 1 1 1 1 1 1 1 1 1 1 1 1 1 1 1 1 1 1 1 1 1 1 1 1 1 1 1 1 1 1 1 1 1 1 1 1 1 1 1 1 1 1 1 1 1 1 1 1 1 1 1 1 1 1 1 1 1 1 1 1 1 1 1 1 1 1 1 1 1 1 1 1 1 1 1 1 1 1 1 1 1 1 1 1 1 1 1 1 1 1 1 1 1 1 1 1 1 1 1 1 1 1 1 1 1 1 1 1 1 1 1 1 1 1 1 1 1 1 1 1 1 1 1 1 1 1 1 1 1 1 1 1 1 1 1 1 1 1 1 1 1 1 1 1 1 1 1 1 1 1 1 1 1 1 1 1 1 1 1 1 1 1 1 1 1 1 1 1 1 1 1 1 1 1 1 1 1 1 1 1 1 1 1 1 1 1 1 1 1 1 1 1 1 1 1 1 1 1 1 1 1 1 1 1 1 1 1 1 1 1 1 1 1 1 1 1 1 1 1 1 1 1 1 1 1 1 1 1 1 1 1 1 1 1 1 1 1 1 1 1 1 1 1 1 1 1 1 1 1 1 1 1 1 1 1 1 1 1 1 1 1 1 1 1 1 1 1 1 1 1 1 1 1 1 1 1 1 1 1 1 1 1 1 1 1 1 1 1 1 1 1 1 1 1 1 1 1 1 1 1 1 1 1 1 1 1 1 1 1 1 1 1 1 1 1 1 1 1 1 1 1 1 1 1 1 1 1 1 1 1 1 1 1 1 1 1 1 1 1 1 1 1 1 1 1 1 1 1 1 1 1 1 1 1 1 1 1 1 1 1 1 1 1 1 1 1 1 1 1 1 1 1 1 1 1 1 1 1 1 1 1 1 1 1 1 1 1 1 1 1 1 1 1 1 1 1 1 1 1 1 1 1 1 1 1 1 1 1 1 1 1 1 1 1 1 1 1 1 1 1 1 1 1 1 1 1 1 1 1 1 1 1 1 1 1 1 1 1 1 1 1 1 1 1 1 1 1 1 1 1 1 1 1 1 1 1 1 1 1 1 1 1 1 1 1 1 1 1 1 1 1 1 1 1 1 1 1 1 1 1 1 1 1 1 1 1 1 1 1 1 1 1 1 1 1 1 1 1 1 1 1 1 1 1 1 1 1 1 1 1 1 1 1 1 1 1 1 1 1 1 1 1 1 1 1 1 1 1 1 1 1 1 1 1 1 1 1 1 1 1 1 1 1 1 1 1 1 1 1 1 1 1 1 1 1 1 1 1 1 1 1 1 1 1 1 1 1 1 1 1 1 1 1 1 1 1 1 1 1 1 1 1 1 1 1 1 1 1 1 1 1 1 1 1 1 1 1 1 1 1 1 1 1 1 1 1 1 1 1 1 1 1 1 1 1 1 1 1 1 1 1 1 1 1 1 1 1 1 1 1 1 1 1 1 1 1 1 1 1 1 1 1 1 1 1 1 1 1 1 1 1 1 1 1 1 1 1 1 1 1 1 1 1 1 1 1 1 1 1 1 1 1 1 1 1 1 1 1 1 1 1 1 1 1 1 1 1 1 1 1 1 1 1 1 1 1 1 1 1 1 1 1 1 1 1 1 1 1 1 1 1 1 1 1 1 1 1 1 1 1 1 1 1 1 1 1 1 1 1 1 1 1 1 1 1 1 1 1 1 1 1 1 1 1 1 1 1 1 1 1 1 1 1 1 1 1 1 1 1 1 1 1 1 1 1 1 1 1 1 1 1 1 1 1 1 1 1 1 1 1 1 1 1 1 1 1 1 1 1 1 1 1 1 1 1 1 1 1 1 1 1 1 1 1 1 1 1 1 1 1 1 1 1 1 1 1 1 1 1 1 1 1 1 1 1 1 1 1 1 1 1 1 1 1 1 1 1 1 1 1 1 1 1 1 1 1 1 1 1 1 1 1 1 1 1 1 1 1 1 1 1 1 1 1 1 1 1 1 1 1 1 1 1 1 1 1 1 1 1 1 1 1 1 1 1 1 1 1 1 1 1 1 1 1 1 1 1 1 1 1 1 1 1 1 1 1 1 1 1 1 1 1 1 1 1 1 1 1 1 1 1 1 1 1 1 1 1 1 1 1 1 1 1 1 1 1 1 1 1 1 1 1 1 1 1 1 1 1 1 1 1 1 1 1 1 1 1 1 1 1 1 1 1 1 1 5 5 5 5 5 5 5 5 5 5 5 5 5 5 5 5 5 5 5 5 5 5 5 5 5 5 5 5 5 5 5 5 5 5 5 5 5 5 5 5 5 5 5 5 5 5 5 5 5 5 5 5 5 5 5 5 5 5 5 5 5 5 5 4 4 4 4 4 4 4 4 4 4 4 4 4 4 4 4 4 4 4 4 4 4 4 4 4 4 4 4 4 4 4 4 4 4 4 4 2 2 2 2 2 2 2 2 2 3 3 3 3 3 3 3 3 3 4 4 4 4 4 4 4 4 4 4 4 4 4 4 4 4 4 4 4 4 4 4 4 4 4 4 4 4 4 4 4 4 4 4 4 4 
</DataArray>
<DataArray type="Float64" Name="u" NumberOfComponents="1" format="ascii">
8.5631088040156622e-01 9.7368049180320004e-01 2.0302005824209993e-02 2.8305323198707744e-01 7.1233874533283315e-01 2.2770088744345149e-01 8.6019445074766288e-01 2.3775064393975381e-01 2.3831461142974775e-01 1.4712219443509498e+00 8.1962690418517714e-01 1.0309252390752484e+00 7.0952986776169041e-02 1.0660142803097186e+00 2.9348935352227529e-01 8.2390264128395430e-01 5.8271962728201365e-01 3.1603841953869433e-01 6.8951134946066772e-01 2.7507964173098287e-01 9.8484137908667516e-02 1.3230505929189681e-01 9.8239585079619540e-01 3.1362054706052045e-01 1.2431133151388138e-01 2.6754442360870845e-01 7.9965593836400128e-01 2.3391203115449319e-01 3.7068001855705396e-01 1.0016254503260971e+00 2.1140902698998559e-01 9.5894839031590828e-01 8.3826376411461889e-01 1.3924924200643440e+00 9.9150386944965363e-01 7.3601695784542698e-01 4.3390746851663436e-01 9.7746658312996781e-01 3.2002429070201199e-01 1.0012843589325693e+00 4.9668848270410199e-01 1.1277900228680859e+00 1.8654413178060214e-01 2.5142061128767512e-01 9.9369036934106780e-01 2.6477914854759887e-01 4.0659834487648555e-01 8.0017582900532158e-01 1.4218154051798640e-01 1.6549585270534886e-01 8.2007190927594587e-01 7.5873837000754674e-01 1.0311163366721521e+00 6.6158691613371601e-01 3.6344298635508621e-01 9.2044995434832622e-01 2.1527807404427640e-01 5.2482607097222367e-01 5.2955366509022467e-02 3.7732396600476970e-01 8.0221735641149028e-01 4.2068499051170716e-01 2.7861289278113638e-01 1.1623167331910249e+00 3.1120114585292563e-01 3.6202158253193906e-01 1.8289565801575053e-01 4.2905056132685471e-02 7.7854041217338876e-01 1.0822579238158314e+00 4.1419855917620274e-01 1.8700093201624113e-01 1.2879213955942397e+00 1.4611526529944359e+00 2.0342079761420256e-01 9.7190000260284215e-01 9.6729181740804027e-01 9.9997236475177442e-01 1.4540908155926466e+00 3.1756909413200890e-01 1.0743827212026662e+00 1.6013436515243953e-01 8.3923547964891676e-01 6.5150073462486580e-01 1.3475591271149119e+00 2.6435257635808079e-01 1.6223255040757685e+00 5.2352403818985838e-01 4.1196560346817424e-01 3.5921444013177312e-01 4.0679733575960925e-01 1.0439854500068058e+00 1.0001293556091331e+00 6.1357946353778281e-02 1.4535246399638377e+00 8.7425483596502773e-01 2.4749074349305758e-01 2.0511321454124729e-01 1.1135775698584114e+00 8.0164031063629418e-02 1.1045008610353795e+00 5.4033921452739464e-01 9.9608903963621664e-01 1.6229031729776999e-01 5.3173779971884128e-01 8.9867732096390748e-02 4.7058322253306500e-01 4.6885877959402478e-01 4.3732119256048096e-01 5.2747847872460875e-02 4.2966067694835819e-01 1.7053758310618505e-01 1.1103809660150973e-01 8.9142004392361485e-01 9.7529524888715391e-01 1.0965153379168657e+00 1.7051917580216287e+00 7.1518104731985954e-01 8.9929250415857598e-01 2.1161569395894567e-01 1.9629789151786661e-01 1.4827455966364425e+00 4.9468000810224184e-02 8.6494181313204810e-01 1.5074248108595971e+00 6.2830589584496582e-02 7.0202441782625913e-01 6.0174281865031720e-01 3.7464703519635156e-01 5.2830491352722608e-01 9.7766486320095980e-01 1.1415878308748453e+00 5.7749792546054990e-01 1.9980373802382626e-01 1.0632679742532178e+00 1.8547434320284556e-01 9.8406875431049445e-01 8.6580901314149250e-01 6.2759981848096058e-01 5.9919713986529000e-01 1.0034229858980532e+00 1.2411912469335051e-01 4.2828269219905513e-02 6.9785187575842644e-01 1.1303003113589596e+00 1.0547955611783757e+00 7.5291493137550547e-01 1.0037082339853338e+00 1.4651112604532524e-01 2.2370158623573116e-01 9.8813451889173531e-01 9.6645994194251683e-01 1.6667194080995387e+00 4.4572737086603331e-01 1.2894079813520305e+00 1.2002560439822014e+00 2.9516739483416438e-01 8.7362098945339373e-01 1.3203331364398256e+00 1.1151518356876338e+00 9.4250444971225456e-01 9.3789419419260722e-02 9.1486795808657084e-01 8.1045141465702941e-01 6.3569549059149311e-01 7.4141776108495994e-01 1.0124507515057526e+00 1.1776570222845530e+00 7.4815474591301734e-01 5.3646737946350609e-01 8.7513028114496616e-01 7.9090454547598388e-01 8.6383175412969271e-01 1.0180632743878570e+00 8.8332037700742028e-01 1.2302383779308292e+00 2.8773795938939739e-01 5.0083772559240403e-01 1.4442031353643654e-02 1.3828506355130152e+00 8.0451095656999216e-01 3.0927847751551557e-01 3.7278542257177960e-01 1.0416817052081329e+00 3.1219888572714058e-02 1.2081604944508506e-01 9.9898513517671272e-01 1.4030458890472493e+00 1.4210352146998908e+00 5.3462159552955402e-01 8.0990226112966268e-01 6.1461086989117542e-01 2.1196134240682629e-01 5.5317545535885781e-01 4.9269579055679091e-01 8.1893379740637862e-01 2.4350529423747114e-01 8.5079533332865287e-01 5.3740533969155596e-02 7.8358332611773795e-01 1.5574913859369346e+00 6.9019637457162131e-01 6.0071667326386935e-01 1.0928304780685565e+00 1.6831500537549998e-01 2.1817209888143133e-01 4.6774208440558496e-01 2.1558360846588542e-01 9.9489343006699649e-01 4.4730642123949171e-01 7.3051071409798629e-01 1.1653891196450836e+00 1.0095817685410289e+00 1.0004093055683128e+00 1.1707369762235800e+00 9.3694185772488936e-01 3.3888845439257897e-01 1.6506187189977828e+00 5.7782432825904347e-02 9.9470653054838643e-01 1.4633492503186387e+00 1.4561128070284917e+00 3.3775368040731646e-01 6.7247907230188697e-01 6.4526419224549370e-01 1.3818980943431125e+00 9.1775716169747290e-01 1.7036387569023548e+00 1.3997270096980086e-01 9.9677617915819705e-01 1.0610428769778246e+00 1.2689039679280349e+00 1.0623289754016485e+00 4.8659768762642236e-01 7.4933258917198375e-01 8.6517233482376221e-02 1.5999938743051727e+00 6.4727996597079374e-01 1.0519033499384416e+00 1.5265590239623078e-01 1.0733392483935136e+00 1.7041911687537099e+00 7.7716047205282868e-01 9.9844990130259526e-01 1.6344644981716170e+00 2.6564784241047273e-01 6.7751134079406347e-02 9.3904491513531707e-01 1.2153997782733805e+00 2.8194144406275801e-01 8.6846985287904743e-01 9.3967180647963777e-01 9.8843187676751154e-01 9.6816724823854017e-01 7.4422490737005131e-01 6.0296842184336130e-01 3.4482656464020234e-01 8.5104244004821772e-01 7.8978561099668398e-01 1.0265947577249404e-01 8.2850493647522938e-01 8.1746607264087390e-01 1.7187321561102273e-01 1.2863900995587345e+00 8.2667141525161325e-01 5.5173802821000519e-02 6.9799158062184552e-01 1.0620290450093801e+00 9.9476576144752016e-01 1.5425522033591279e+00 1.7232205873935937e+00 9.6715812004278179e-01 1.6657856219952656e+00 1.0572659507463866e+00 6.3361141555184530e-01 7.6297581880486554e-01 1.2571001080156596e+00 1.0053391988462210e+00 2.3120872519069799e-01 9.2392122048369352e-01 8.0828693013712893e-01 1.2502683434256621e+00 1.0020295280923521e+00 1.0245684033892413e+00 4.8881268048211762e-01 3.5676322612045808e-01 3.5447323664257491e-01 8.1413145284147759e-01 7.4669476638459265e-01 1.1684299979922528e+00 6.4471869613891863e-01 1.2698580636135925e+00 5.7056600922219869e-01 6.7404205129403660e-01 7.6436110482590676e-03 1.0592585034740706e-01 1.2466402069921156e+00 8.1806618846650414e-02 1.0777633568372020e+00 1.4403662565546331e+00 9.2445845447670552e-02 9.8121275991687817e-01 8.4529588625107954e-02 1.4806106183580956e+00 8.1925765617908508e-01 1.4081364333306610e+00 7.2547111317805846e-01 9.3155408444063748e-01 3.5086930897035956e-01 1.2792696627187988e-01 1.5591486673662496e+00 2.4793292904189418e-01 8.9321461453760143e-01 1.0057377944070651e+00 1.5096488918267335e-02 6.4275751815165338e-01 6.1319628641547963e-01 7.5324359660087481e-01 1.6232529309567019e+00 1.4319843424380581e+00 7.8258130668792525e-01 1.1221602347357718e+00 9.9989834851786485e-01 9.5812471743431293e-01 1.5652931828566456e+00 9.9194341871621061e-01 1.0807538916364705e+00 5.1081289603517011e-01 1.2947797730346944e+00 7.8894382347859460e-01 9.6872541243510957e-01 1.0142030083160796e+00 7.8279062136593036e-01 1.3792173064331394e+00 8.0712683521132988e-01 1.2213239236725661e+00 1.2377874066273196e+00 5.1816480771993378e-01 9.6389997524249937e-01 1.5855863326886233e-01 1.0855312051654886e+00 7.9719081200275688e-01 1.2508939250144213e-01 8.0374570858813743e-01 7.8021977421261202e-01 1.2759266731923606e+00 9.2610123490559915e-01 9.2744415321075269e-01 9.4305586629508009e-01 9.3319904116583863e-01 5.1933082043972323e-01 2.9286163238875940e-01 1.4779689163843319e+00 7.4854488384523621e-01 1.0895532283630509e+00 9.3663723762580842e-01 7.2715044534965911e-01 1.0151163430450834e+00 1.5489965206857934e+00 8.5045931380612366e-02 3.7107370068750933e-01 1.7507225775956914e+00 7.3657924540594177e-01 7.1259624170402125e-01 4.5390525484884947e-01 9.0771484097591482e-01 1.5630646291455452e+00 1.1158405186120941e+00 7.0746927538456506e-01 1.0010659875096437e+00 1.2018729953140612e+00 3.4430302267610080e-01 4.2145940589210062e-01 3.7498463396629367e-01 2.7020516253233073e-01 1.1001066504626387e+00 1.0754007002320789e+00 2.9566649785577592e-01 3.7816907620340451e-01 7.2749149503513799e-01 7.6056779416376363e-01 5.5780654311590139e-01 1.2429393845488996e+00 9.5083042096161263e-01 6.8658915863209591e-01 1.3703136719637454e+00 1.8125132212901973e-01 1.6745757449668019e-01 7.7518154516205251e-01 9.4864832240393404e-01 4.0484320769946458e-01 6.7604134375816183e-01 1.0005349074654997e+00 9.7725405524047249e-01 1.0010369468211104e+00 2.8024526155012602e-01 2.5107814981622939e-01 9.8500316312577096e-01 9.9776664369100931e-01 1.2361152791881220e+00 9.9597302690432343e-01 1.3927247223298020e+00 8.3266483861240426e-01 6.3181966142649526e-01 1.0024314986325420e+00 8.5448130198158179e-01 1.1218859127837773e+00 1.2963288334220386e+00 8.9520807066900868e-02 8.3595500896489239e-01 8.3199157222536080e-01 5.6562775430678791e-01 9.3601394876879751e-01 3.3085533291043334e-01 8.0189699990848351e-01 7.4866764884241266e-01 1.0034797516336376e+00 9.6403165121245293e-01 4.5533269753454692e-01 9.9899729961674588e-01 1.0115774388049379e+00 8.7818358144293518e-01 5.5490495480741941e-01 9.9915675520664782e-01 6.5005668568095665e-01 1.0004531221046726e+00 4.0243656327686639e-01 5.8969033129913515e-02 8.0310568659982637e-02 7.8411787141982203e-01 1.8748862531483573e-01 1.6804821868267791e-01 1.0367737816246412e+00 9.1168756095060877e-01 1.1461522490945948e+00 7.6034628551529282e-01 8.1824386855049691e-01 9.9943551857720947e-01 1.0015995030919971e+00 9.7163576192421219e-01 9.9402018336874909e-01 9.7413124351279368e-01 1.0009655725930262e+00 9.9765457539205060e-01 1.1792747489688140e+00 9.9700776701871474e-01 9.5580028978676634e-01 9.9922148622770857e-01 9.5318713931811305e-01 1.0288431147698485e+00 6.8387722445101751e-01 8.5237151522256349e-01 9.9923440146044074e-01 1.0001487684644186e+00 1.0164277345623867e+00 2.0342251774473574e-01 1.2163804658680966e+00 1.0218921910832541e+00 8.5725685785857730e-01 9.7207584306911543e-01 1.1135575143835901e+00 9.0714512166146388e-01 1.0062521463918466e+00 1.1179004588500736e+00 9.9924212599118323e-01 1.2052358723050405e+00 1.2435666715974965e+00 1.0104657939972017e+00 1.0159102772422495e+00 2.3655285284709525e-02 9.9985184931595028e-01 9.9664278713327381e-01 1.0093056169511270e+00 9.7555839742810635e-01 9.9590300083053018e-01 9.7484024557453175e-01 1.0074558818574924e+00 1.0000129183107056e+00 9.9846427002020388e-01 9.9900792985551790e-01 3.6520910537436246e-01 9.9650830485766329e-01 9.9219693986956958e-01 9.7295758724843884e-01 1.0262362223717072e+00 9.8735169519296184e-01 9.8639065563117490e-01 2.4482140602695857e-01 9.9745814532970956e-01 1.0330803205047647e+00 9.9967829025090604e-01 1.0476361503532556e+00 9.7664178142741254e-01 1.0055880315822010e+00 1.0983382893511702e+00 1.0220034627568468e+00 1.0119436451376100e+00 9.5864335849983062e-01 1.0047767876921800e+00 1.0085080459618678e+00 9.9488756562456893e-01 9.4948370812677130e-01 1.1405571930473521e+00 9.6281219903055049e-01 1.1037112532837452e+00 9.8756970527271526e-01 9.9867014102333429e-01 9.9019083459038326e-01 9.9855151720345248e-01 9.9832857736787461e-01 1.0060449818821833e+00 1.0025175582699819e+00 9.6749247779559577e-01 1.0006718388143812e+00 9.9146757476712355e-01 9.9073128237979891e-01 9.9236247761431740e-01 1.0556626669427229e+00 7.5431620967371882e-01 1.0005933297159275e+00 1.2747378349002803e-01 1.0425778657462783e+00 3.3251227527292049e-01 5.4303771724680361e-01 1.1130622112619388e+00 1.0015842610259365e+00 1.0244769854937212e+00 9.9527626761520116e-01 1.0781331266876588e+00 1.0387232362529932e+00 9.8633500370824689e-01 9.9838382197803521e-01 9.8062288833864353e-01 1.2323594969235749e+00 4.1354430087394350e-01 1.0007182099029945e+00 1.0113600535823364e+00 9.8341524858528961e-01 1.0994876580359985e+00 7.3602746654482143e-01 1.0037039705648447e+00 1.0016777945615749e+00 9.9885577337255382e-01 8.7854187297515851e-01 5.9420675406160794e-01 9.6548087786687464e-01 9.9604973848131473e-01 9.8851251008294827e-01 1.0272377267787067e+00 9.9980427324366450e-01 9.8904541870545182e-01 1.0118500107846888e+00 1.0487166674148449e+00 1.0356071427856697e+00 9.6738549083044534e-01 9.9431137371949596e-01 1.0034281883230918e+00 1.3086569448047283e+00 9.8567669896800592e-01 9.6203459779358780e-01 1.1526973468971951e+00 1.1344887536675521e+00 1.0027149041241630e+00 1.0076976645521896e+00 1.0115633948798071e+00 1.0033767448702702e+00 1.0062044496510480e+00 1.2068343368346543e-01 1.0065060427181449e+00 9.9398729228514160e-01 1.0086375583309803e+00 9.9655229450052341e-01 1.0015678589465629e+00 9.0924536454181881e-01 1.1812515955933389e+00 1.0168290869992622e+00 9.4033109499369427e-01 1.0461748154470398e+00 1.0333041652637633e+00 1.0197182581991617e+00 1.1583689425408048e+00 1.0640961363032750e+00 1.0536810289604581e+00 1.0238472627282489e+00 1.0277327360049675e+00 1.0385667505069707e+00 9.6765525559726151e-01 8.9577569119700529e-01 9.8879600536758816e-01 9.9606248679183762e-01 1.0017381903974214e+00 1.0065404986603403e+00 4.0104822091687520e-01 1.0137179172052853e+00 1.0072719201597060e+00 1.0005352031286989e+00 1.0050523129775724e+00 1.1966014724312672e+00 1.0119980989339272e+00 5.3074881901931581e-01 9.7978335167158515e-01 9.8198494101351752e-01 9.9394165698362902e-01 1.0103828306137352e+00 1.0060252773481411e+00 1.0109818368702359e+00 9.6891293699083136e-01 1.7680377715192752e+00 1.0252800647154494e+00 1.0113541809293374e+00 9.8506855302622476e-01 1.0208274767019423e+00 9.9784988002305497e-01 9.9751179565858228e-01 9.7525193039760993e-01 9.9449004872933056e-01 1.5862047583417151e+00 9.6385676752249938e-01 9.8184267344089471e-01 1.0004617078129008e+00 9.3109509473195884e-01 1.4446883521396237e+00 1.0346993072543804e+00 1.0498985238825036e+00 1.0284840967208282e+00 1.7737725498949533e+00 1.0476299190792073e+00 1.0293456016149420e+00 1.0101486807092015e+00 9.4855543262919872e-01 9.7743084764966626e-01 9.9655781315559167e-01 9.9847072151448724e-01 1.0311520324926593e+00 9.6606786694613578e-01 1.3272550285212796e+00 1.0016424437364526e+00 1.0100723072427658e+00 9.8271707510872153e-01 9.5559329607634425e-01 1.0795501555168334e+00 1.0056484887078563e+00 9.5663207439589293e-01 6.2440382535538963e-01 1.0489356285723388e+00 1.0189904079526777e+00 1.0144922134422532e+00 9.6469032923156750e-01 9.4118225891158191e-01 7.8679122549355074e-01 9.7987048097114615e-01 1.0618996387860076e+00 7.7938372409503431e-01 1.7651369217339841e-01 1.0012972860422575e+00 1.0290551302608257e+00 1.0205699578413965e+00 9.8325985536344240e-01 9.7517864152401612e-01 1.0016755582710157e+00 9.6441074141980576e-01 9.5058673630364088e-01 1.0419486775552906e+00 9.8711819500343156e-01 1.0000236605479125e+00 9.9310358248363839e-01 9.9992961557324189e-01 9.9999911242607753e-01 1.1875866433897972e+00 9.4979227803008914e-01 9.0282278373721780e-01 3.5920320131708866e-01 4.1642194585651932e-01 1.0055463245193188e+00 9.4730088300618709e-01 1.0192283839846277e+00 1.0734253397889466e+00 1.0067479315358745e+00 9.9998745965587688e-01 1.0314639489906561e+00 9.7597774736562304e-01 9.5848580529605254e-01 1.0128711980422351e+00 9.9998023099037703e-01 1.0397613080431864e+00 1.0261407291347917e+00 9.8863299117378378e-01 9.7646108973763723e-01 1.2081867933339114e+00 6.4223174898602642e-01 9.8909096364718230e-01 1.1186822146826856e+00 1.3081233359315210e+00 9.1691128033594471e-01 1.1028297414948500e+00 9.7315154244688817e-01 9.7906845743412974e-01 1.1879872217123033e+00 9.9618238520068081e-01 2.7213318670897713e-01 9.1402968213466562e-01 1.6620394413065370e-01 9.8939602875957955e-01 9.7859897345312041e-01 9.9628527946029255e-01 9.3952602317607048e-01 5.9618619289566943e-01 1.0154510920270479e+00 9.1038296077160519e-01 9.3225626764186798e-01 1.0121148691652218e+00 2.6772704407444242e-01 1.0035624890532882e+00 9.9997480278305617e-01 8.1334901877588450e-01 3.0982918182823999e-01 3.61849283124099