<?xml version="1.0"?>
<VTKFile type="UnstructuredGrid"  byte_order="LittleEndian">
<UnstructuredGrid>
<Piece NumberOfPoints="1257" NumberOfCells=" 2516">
<Points>
<DataArray type="Float32" NumberOfComponents="3" format="ascii">
4.766070 -2.431453 0.000000 25.688967 -2.555515 0.000000 0.869695 -4.547104 0.000000 31.475542 -4.547104 0.000000 0.869695 5.204223 0.000000 31.475542 5.204223 0.000000 4.762718 -2.364294 0.000000 4.752697 -2.297804 0.000000 4.736104 -2.232641 0.000000 4.713106 -2.169455 0.000000 4.683931 -2.108872 0.000000 4.648869 -2.051495 0.000000 4.608267 -1.997894 0.000000 4.562531 -1.948602 0.000000 4.512115 -1.904109 0.000000 4.457519 -1.864858 0.000000 4.399285 -1.831237 0.000000 4.337994 -1.803581 0.000000 4.274254 -1.782165 0.000000 4.208698 -1.767203 0.000000 4.141978 -1.758842 0.000000 4.074757 -1.757165 0.000000 4.007703 -1.762190 0.000000 3.941483 -1.773867 0.000000 3.876755 -1.792078 0.000000 3.814161 -1.816645 0.000000 3.754324 -1.847321 0.000000 3.697839 -1.883803 0.000000 3.645267 -1.925727 0.000000 3.597131 -1.972678 0.000000 3.553909 -2.024188 0.000000 3.516031 -2.079746 0.000000 3.483872 -2.138799 0.000000 3.457753 -2.200761 0.000000 3.437933 -2.265015 0.000000 3.424609 -2.330924 0.000000 3.417914 -2.397832 0.000000 3.417914 -2.465074 0.000000 3.424609 -2.531981 0.000000 3.437933 -2.597890 0.000000 3.457753 -2.662144 0.000000 3.483872 -2.724106 0.000000 3.516031 -2.783159 0.000000 3.553909 -2.838717 0.000000 3.597131 -2.890227 0.000000 3.645267 -2.937178 0.000000 3.697839 -2.979102 0.000000 3.754324 -3.015584 0.000000 3.814161 -3.046261 0.000000 3.876755 -3.070827 0.000000 3.941483 -3.089039 0.000000 4.007703 -3.100715 0.000000 4.074757 -3.105740 0.000000 4.141978 -3.104064 0.000000 4.208698 -3.095703 0.000000 4.274254 -3.080740 0.000000 4.337994 -3.059324 0.000000 4.399285 -3.031669 0.000000 4.457519 -2.998048 0.000000 4.512115 -2.958796 0.000000 4.562531 -2.914303 0.000000 4.608267 -2.865011 0.000000 4.648869 -2.811410 0.000000 4.683931 -2.754034 0.000000 4.713106 -2.693451 0.000000 4.736104 -2.630264 0.000000 4.752697 -2.565102 0.000000 4.762718 -2.498611 0.000000 25.684874 -2.473494 0.000000 25.672634 -2.392288 0.000000 25.652369 -2.312704 0.000000 25.624281 -2.235533 0.000000 25.588650 -2.161543 0.000000 25.545828 -2.091468 0.000000 25.496241 -2.026005 0.000000 25.440382 -1.965804 0.000000 25.378809 -1.911464 0.000000 25.312130 -1.863525 0.000000 25.241009 -1.822464 0.000000 25.166153 -1.788688 0.000000 25.088306 -1.762532 0.000000 25.008242 -1.744258 0.000000 24.926756 -1.734047 0.000000 24.844658 -1.731999 0.000000 24.762764 -1.738136 0.000000 24.681889 -1.752397 0.000000 24.602835 -1.774639 0.000000 24.526388 -1.804642 0.000000 24.453310 -1.842108 0.000000 24.384323 -1.886663 0.000000 24.320118 -1.937866 0.000000 24.261328 -1.995208 0.000000 24.208540 -2.058118 0.000000 24.162279 -2.125971 0.000000 24.123003 -2.198094 0.000000 24.091103 -2.273768 0.000000 24.066896 -2.352243 0.000000 24.050625 -2.432738 0.000000 24.042448 -2.514453 0.000000 24.042448 -2.596576 0.000000 24.050625 -2.678292 0.000000 24.066896 -2.758786 0.000000 24.091103 -2.837261 0.000000 24.123003 -2.912936 0.000000 24.162279 -2.985058 0.000000 24.208540 -3.052912 0.000000 24.261328 -3.115822 0.000000 24.320118 -3.173163 0.000000 24.384323 -3.224366 0.000000 24.453310 -3.268922 0.000000 24.526388 -3.306387 0.000000 24.602835 -3.336390 0.000000 24.681889 -3.358633 0.000000 24.762764 -3.372893 0.000000 24.844658 -3.379030 0.000000 24.926756 -3.376983 0.000000 25.008242 -3.366771 0.000000 25.088306 -3.348497 0.000000 25.166153 -3.322342 0.000000 25.241009 -3.288566 0.000000 25.312130 -3.247504 0.000000 25.378809 -3.199565 0.000000 25.440382 -3.145226 0.000000 25.496241 -3.085025 0.000000 25.545828 -3.019562 0.000000 25.588650 -2.949487 0.000000 25.624281 -2.875496 0.000000 25.652369 -2.798326 0.000000 25.672634 -2.718742 0.000000 25.684874 -2.637536 0.000000 1.856981 -4.547104 0.000000 2.844266 -4.547104 0.000000 3.831552 -4.547104 0.000000 4.818837 -4.547104 0.000000 5.806122 -4.547104 0.000000 6.793407 -4.547104 0.000000 7.780693 -4.547104 0.000000 8.767979 -4.547104 0.000000 9.755263 -4.547104 0.000000 10.742549 -4.547104 0.000000 11.729835 -4.547104 0.000000 12.717120 -4.547104 0.000000 13.704405 -4.547104 0.000000 14.691690 -4.547104 0.000000 15.678976 -4.547104 0.000000 16.666262 -4.547104 0.000000 17.653547 -4.547104 0.000000 18.640833 -4.547104 0.000000 19.628117 -4.547104 0.000000 20.615402 -4.547104 0.000000 21.602688 -4.547104 0.000000 22.589973 -4.547104 0.000000 23.577259 -4.547104 0.000000 24.564545 -4.547104 0.000000 25.551830 -4.547104 0.000000 26.539116 -4.547104 0.000000 27.526400 -4.547104 0.000000 28.513685 -4.547104 0.000000 29.500971 -4.547104 0.000000 30.488256 -4.547104 0.000000 0.869695 4.229091 0.000000 0.869695 3.253958 0.000000 0.869695 2.278825 0.000000 0.869695 1.303692 0.000000 0.869695 0.328560 0.000000 0.869695 -0.646573 0.000000 0.869695 -1.621706 0.000000 0.869695 -2.596839 0.000000 0.869695 -3.571971 0.000000 31.475542 -3.571971 0.000000 31.475542 -2.596839 0.000000 31.475542 -1.621706 0.000000 31.475542 -0.646573 0.000000 31.475542 0.328560 0.000000 31.475542 1.303692 0.000000 31.475542 2.278825 0.000000 31.475542 3.253958 0.000000 31.475542 4.229091 0.000000 30.488256 5.204223 0.000000 29.500971 5.204223 0.000000 28.513685 5.204223 0.000000 27.526400 5.204223 0.000000 26.539116 5.204223 0.000000 25.551830 5.204223 0.000000 24.564545 5.204223 0.000000 23.577259 5.204223 0.000000 22.589973 5.204223 0.000000 21.602688 5.204223 0.000000 20.615402 5.204223 0.000000 19.628117 5.204223 0.000000 18.640833 5.204223 0.000000 17.653547 5.204223 0.000000 16.666262 5.204223 0.000000 15.678976 5.204223 0.000000 14.691690 5.204223 0.000000 13.704405 5.204223 0.000000 12.717120 5.204223 0.000000 11.729835 5.204223 0.000000 10.742549 5.204223 0.000000 9.755263 5.204223 0.000000 8.767979 5.204223 0.000000 7.780693 5.204223 0.000000 6.793407 5.204223 0.000000 5.806122 5.204223 0.000000 4.818837 5.204223 0.000000 3.831552 5.204223 0.000000 2.844266 5.204223 0.000000 1.856981 5.204223 0.000000 20.130533 4.440638 0.000000 8.363052 4.346283 0.000000 8.274336 -3.692090 0.000000 27.032757 4.349209 0.000000 23.201839 4.389992 0.000000 5.172127 4.333005 0.000000 11.260205 4.331640 0.000000 15.139040 -3.869046 0.000000 18.168776 -3.769944 0.000000 30.732656 -0.277509 0.000000 17.159904 4.349209 0.000000 12.175023 -3.673601 0.000000 14.283497 4.361717 0.000000 21.049265 -3.782833 0.000000 1.677503 0.805492 0.000000 28.070826 -3.751917 0.000000 30.668505 1.793999 0.000000 24.984802 4.323009 0.000000 10.230777 -3.706293 0.000000 3.457093 4.315107 0.000000 6.299765 -3.692090 0.000000 30.790611 -2.013360 0.000000 1.770798 -1.016380 0.000000 25.456406 -3.236282 0.000000 28.915598 4.282962 0.000000 24.304575 -3.242772 0.000000 1.503903 -3.130504 0.000000 1.596693 2.701734 0.000000 24.976343 -3.442446 0.000000 23.032400 -3.764156 0.000000 24.035664 -2.909734 0.000000 24.132881 -3.052460 0.000000 24.498240 -3.380572 0.000000 25.232832 -3.370281 0.000000 29.882923 -3.686009 0.000000 30.644066 3.738313 0.000000 23.854317 -3.840458 0.000000 3.356395 -3.710410 0.000000 3.580539 -2.955390 0.000000 3.701745 -3.058457 0.000000 3.801632 -3.106954 0.000000 4.029820 -3.826131 0.000000 4.251757 -3.153465 0.000000 4.107951 -3.174090 0.000000 3.964505 -3.164833 0.000000 4.904000 -3.715428 0.000000 4.621651 -2.932065 0.000000 4.518365 -3.039070 0.000000 22.221552 -3.795265 0.000000 22.608557 -3.189778 0.000000 23.966764 -2.640802 0.000000 2.504849 -3.961893 0.000000 2.942964 -3.209219 0.000000 3.417152 -2.715745 0.000000 1.566535 -2.143284 0.000000 2.252097 -2.637059 0.000000 3.363318 -2.358580 0.000000 3.350366 -2.497480 0.000000 25.932049 -3.958875 0.000000 25.615181 -3.025529 0.000000 26.938086 -3.943230 0.000000 26.387440 -3.245938 0.000000 25.759682 -2.682021 0.000000 25.701813 -2.851403 0.000000 1.648714 -0.321461 0.000000 2.375025 0.320413 0.000000 2.281487 -0.636997 0.000000 2.247820 -1.369417 0.000000 3.413583 -2.139611 0.000000 3.484903 -2.020667 0.000000 2.777761 -0.955479 0.000000 3.690459 -1.814363 0.000000 3.580539 -1.907516 0.000000 7.158606 -3.766248 0.000000 7.669191 -3.017825 0.000000 6.862492 -3.073434 0.000000 7.179031 -2.481763 0.000000 7.837901 -2.338679 0.000000 7.332675 -1.806150 0.000000 8.040088 -1.674384 0.000000 7.563354 -1.179875 0.000000 8.255680 -1.001127 0.000000 7.757969 -0.488075 0.000000 7.031313 -0.710719 0.000000 8.467028 -0.282687 0.000000 7.254255 -0.003716 0.000000 6.606955 -0.172749 0.000000 6.783777 0.485592 0.000000 6.088487 0.271429 0.000000 6.387556 -0.698584 0.000000 8.992760 -0.843260 0.000000 9.219167 -0.060242 0.000000 9.773995 -0.681786 0.000000 10.016709 0.105902 0.000000 10.610645 -0.507895 0.000000 10.863991 0.320398 0.000000 11.440424 -0.308882 0.000000 11.740805 0.549661 0.000000 12.353400 -0.182522 0.000000 6.603878 -2.574266 0.000000 4.800832 -2.612052 0.000000 4.767901 -2.740761 0.000000 6.299486 0.985756 0.000000 5.632630 0.796404 0.000000 5.455378 0.140274 0.000000 6.993755 1.169441 0.000000 9.430115 0.709767 0.000000 5.004323 0.603522 0.000000 4.886719 0.008592 0.000000 12.647539 0.767844 0.000000 13.280532 0.121345 0.000000 5.138759 1.275149 0.000000 13.567248 1.000098 0.000000 14.220998 0.306171 0.000000 14.500168 1.220293 0.000000 15.159149 0.516803 0.000000 4.382731 1.019847 0.000000 6.494960 1.694904 0.000000 4.603756 1.748538 0.000000 15.439873 1.439299 0.000000 16.101255 0.731808 0.000000 15.820466 -0.188130 0.000000 16.778435 0.056162 0.000000 17.036283 0.941067 0.000000 17.715265 0.303554 0.000000 17.944992 1.149721 0.000000 18.577469 0.521500 0.000000 18.801884 1.336232 0.000000 19.379702 0.699804 0.000000 19.165955 -0.066138 0.000000 19.912680 0.140525 0.000000 20.115463 0.850658 0.000000 20.621729 0.327080 0.000000 20.812235 0.987042 0.000000 21.266716 0.481867 0.000000 21.088219 -0.116343 0.000000 21.704576 0.028767 0.000000 21.844757 0.596457 0.000
[...]
<CellData Scalars="Label">
<DataArray type="Int32" Name="Label" format="ascii">
1 1 1 1 1 1 1 1 1 1 1 1 1 1 1 1 1 1 1 1 1 1 1 1 1 1 1 1 1 1 1 1 1 1 1 1 1 1 1 1 1 1 1 1 1 1 1 1 1 1 1 1 1 1 1 1 1 1 1 1 1 1 1 1 1 1 1 1 1 1 1 1 1 1 1 1 1 1 1 1 1 1 1 1 1 1 1 1 1 1 1 1 1 1 1 1 1 1 1 1 1 1 1 1 1 1 1 1 1 1 1 1 1 1 1 1 1 1 1 1 1 1 1 1 1 1 1 1 1 1 1 1 1 1 1 1 1 1 1 1 1 1 1 1 1 1 1 1 1 1 1 1 1 1 1 1 1 1 1 1 1 1 1 1 1 1 1 1 1 1 1 1 1 1 1 1 1 1 1 1 1 1 1 1 1 1 1 1 1 1 1 1 1 1 1 1 1 1 1 1 1 1 1 1 1 1 1 1 1 1 1 1 1 1 1 1 1 1 1 1 1 1 1 1 1 1 1 1 1 1 1 1 1 1 1 1 1 1 1 1 1 1 1 1 1 1 1 1 1 1 1 1 1 1 1 1 1 1 1 1 1 1 1 1 1 1 1 1 1 1 1 1 1 1 1 1 1 1 1 1 1 1 1 1 1 1 1 1 1 1 1 1 1 1 1 1 1 1 1 1 1 1 1 1 1 1 1 1 1 1 1 1 1 1 1 1 1 1 1 1 1 1 1 1 1 1 1 1 1 1 1 1 1 1 1 1 1 1 1 1 1 1 1 1 1 1 1 1 1 1 1 1 1 1 1 1 1 1 1 1 1 1 1 1 1 1 1 1 1 1 1 1 1 1 1 1 1 1 1 1 1 1 1 1 1 1 1 1 1 1 1 1 1 1 1 1 1 1 1 1 1 1 1 1 1 1 1 1 1 1 1 1 1 1 1 1 1 1 1 1 1 1 1 1 1 1 1 1 1 1 1 1 1 1 1 1 1 1 1 1 1 1 1 1 1 1 1 1 1 1 1 1 1 1 1 1 1 1 1 1 1 1 1 1 1 1 1 1 1 1 1 1 1 1 1 1 1 1 1 1 1 1 1 1 1 1 1 1 1 1 1 1 1 1 1 1 1 1 1 1 1 1 1 1 1 1 1 1 1 1 1 1 1 1 1 1 1 1 1 1 1 1 1 1 1 1 1 1 1 1 1 1 1 1 1 1 1 1 1 1 1 1 1 1 1 1 1 1 1 1 1 1 1 1 1 1 1 1 1 1 1 1 1 1 1 1 1 1 1 1 1 1 1 1 1 1 1 1 1 1 1 1 1 1 1 1 1 1 1 1 1 1 1 1 1 1 1 1 1 1 1 1 1 1 1 1 1 1 1 1 1 1 1 1 1 1 1 1 1 1 1 1 1 1 1 1 1 1 1 1 1 1 1 1 1 1 1 1 1 1 1 1 1 1 1 1 1 1 1 1 1 1 1 1 1 1 1 1 1 1 1 1 1 1 1 1 1 1 1 1 1 1 1 1 1 1 1 1 1 1 1 1 1 1 1 1 1 1 1 1 1 1 1 1 1 1 1 1 1 1 1 1 1 1 1 1 1 1 1 1 1 1 1 1 1 1 1 1 1 1 1 1 1 1 1 1 1 1 1 1 1 1 1 1 1 1 1 1 1 1 1 1 1 1 1 1 1 1 1 1 1 1 1 1 1 1 1 1 1 1 1 1 1 1 1 1 1 1 1 1 1 1 1 1 1 1 1 1 1 1 1 1 1 1 1 1 1 1 1 1 1 1 1 1 1 1 1 1 1 1 1 1 1 1 1 1 1 1 1 1 1 1 1 1 1 1 1 1 1 1 1 1 1 1 1 1 1 1 1 1 1 1 1 1 1 1 1 1 1 1 1 1 1 1 1 1 1 1 1 1 1 1 1 1 1 1 1 1 1 1 1 1 1 1 1 1 1 1 1 1 1 1 1 1 1 1 1 1 1 1 1 1 1 1 1 1 1 1 1 1 1 1 1 1 1 1 1 1 1 1 1 1 1 1 1 1 1 1 1 1 1 1 1 1 1 1 1 1 1 1 1 1 1 1 1 1 1 1 1 1 1 1 1 1 1 1 1 1 1 1 1 1 1 1 1 1 1 1 1 1 1 1 1 1 1 1 1 1 1 1 1 1 1 1 1 1 1 1 1 1 1 1 1 1 1 1 1 1 1 1 1 1 1 1 1 1 1 1 1 1 1 1 1 1 1 1 1 1 1 1 1 1 1 1 1 1 1 1 1 1 1 1 1 1 1 1 1 1 1 1 1 1 1 1 1 1 1 1 1 1 1 1 1 1 1 1 1 1 1 1 1 1 1 1 1 1 1 1 1 1 1 1 1 1 1 1 1 1 1 1 1 1 1 1 1 1 1 1 1 1 1 1 1 1 1 1 1 1 1 1 1 1 1 1 1 1 1 1 1 1 1 1 1 1 1 1 1 1 1 1 1 1 1 1 1 1 1 1 1 1 1 1 1 1 1 1 1 1 1 1 1 1 1 1 1 1 1 1 1 1 1 1 1 1 1 1 1 1 1 1 1 1 1 1 1 1 1 1 1 1 1 1 1 1 1 1 1 1 1 1 1 1 1 1 1 1 1 1 1 1 1 1 1 1 1 1 1 1 1 1 1 1 1 1 1 1 1 1 1 1 1 1 1 1 1 1 1 1 1 1 1 1 1 1 1 1 1 1 1 1 1 1 1 1 1 1 1 1 1 1 1 1 1 1 1 1 1 1 1 1 1 1 1 1 1 1 1 1 1 1 1 1 1 1 1 1 1 1 1 1 1 1 1 1 1 1 1 1 1 1 1 1 1 1 1 1 1 1 1 1 1 1 1 1 1 1 1 1 1 1 1 1 1 1 1 1 1 1 1 1 1 1 1 1 1 1 1 1 1 1 1 1 1 1 1 1 1 1 1 1 1 1 1 1 1 1 1 1 1 1 1 1 1 1 1 1 1 1 1 1 1 1 1 1 1 1 1 1 1 1 1 1 1 1 1 1 1 1 1 1 1 1 1 1 1 1 1 1 1 1 1 1 1 1 1 1 1 1 1 1 1 1 1 1 1 1 1 1 1 1 1 1 1 1 1 1 1 1 1 1 1 1 1 1 1 1 1 1 1 1 1 1 1 1 1 1 1 1 1 1 1 1 1 1 1 1 1 1 1 1 1 1 1 1 1 1 1 1 1 1 1 1 1 1 1 1 1 1 1 1 1 1 1 1 1 1 1 1 1 1 1 1 1 1 1 1 1 1 1 1 1 1 1 1 1 1 1 1 1 1 1 1 1 1 1 1 1 1 1 1 1 1 1 1 1 1 1 1 1 1 1 1 1 1 1 1 1 1 1 1 1 1 1 1 1 1 1 1 1 1 1 1 1 1 1 1 1 1 1 1 1 1 1 1 1 1 1 1 1 1 1 1 1 1 1 1 1 1 1 1 1 1 1 1 1 1 1 1 1 1 1 1 1 1 1 1 1 1 1 1 1 1 1 1 1 1 1 1 1 1 1 1 1 1 1 1 1 1 1 1 1 1 1 1 1 1 1 1 1 1 1 1 1 1 1 1 1 1 1 1 1 1 1 1 1 1 1 1 1 1 1 1 1 1 1 1 1 1 1 1 1 1 1 1 1 1 1 1 1 1 1 1 1 1 1 1 1 1 1 1 1 1 1 1 1 1 1 1 1 1 1 1 1 1 1 1 1 1 1 1 1 1 1 1 1 1 1 1 1 1 1 1 1 1 1 1 1 1 1 1 1 1 1 1 1 1 1 1 1 1 1 1 1 1 1 1 1 1 1 1 1 1 1 1 1 1 1 1 1 1 1 1 1 1 1 1 1 1 1 1 1 1 1 1 1 1 1 1 1 1 1 1 1 1 1 1 1 1 1 1 1 1 1 1 1 1 1 1 1 1 1 1 1 1 1 1 1 1 1 1 1 1 1 1 1 1 1 1 1 1 1 1 1 1 1 1 1 1 1 1 1 1 1 1 1 1 1 1 1 1 1 1 1 1 1 1 1 1 1 1 1 1 1 1 1 1 1 1 1 1 1 1 1 1 1 1 1 1 1 1 1 1 1 1 1 1 1 1 1 1 1 1 1 1 1 1 1 1 1 1 1 1 1 1 1 1 1 1 1 1 1 1 1 1 1 1 1 1 1 1 1 1 1 1 1 1 1 1 1 1 1 1 1 1 1 1 1 1 1 1 1 1 1 1 1 1 1 1 1 1 1 1 1 1 1 1 1 1 1 1 1 1 1 1 1 1 1 1 1 1 1 1 1 1 1 1 1 1 1 1 1 1 1 1 1 1 1 1 1 1 1 1 1 1 1 1 1 1 1 1 1 1 1 1 1 1 1 1 1 1 1 1 1 1 1 1 1 1 1 1 1 1 1 1 1 1 1 1 1 1 1 1 1 1 1 1 1 1 1 1 1 1 1 1 1 1 1 1 1 1 1 1 1 1 1 1 1 1 1 1 1 1 1 1 1 1 1 1 1 1 1 1 1 1 1 1 1 1 1 1 1 1 1 1 1 1 1 1 1 1 1 1 1 1 1 1 1 1 1 1 1 1 1 1 1 1 1 1 1 1 1 1 1 1 1 1 1 1 1 1 1 1 1 1 1 1 1 1 1 1 1 1 1 1 1 1 1 1 1 1 1 1 1 1 1 1 1 1 1 1 1 1 1 1 1 1 1 1 1 1 1 1 1 1 1 1 1 1 1 1 1 1 1 1 1 1 1 1 1 1 1 1 1 1 1 1 1 1 1 1 1 1 1 1 1 1 1 1 1 1 1 1 1 1 1 1 1 1 1 1 1 1 1 1 1 1 1 1 1 1 1 1 1 1 1 1 1 1 1 1 1 1 1 1 1 1 1 1 1 1 1 1 1 1 1 1 1 1 1 1 1 1 1 1 1 1 1 1 1 1 1 1 1 1 1 1 1 1 1 1 1 1 1 1 1 1 1 1 1 1 1 1 1 1 1 1 1 1 1 1 1 1 1 1 1 1 1 1 1 1 1 1 1 1 1 1 1 1 1 1 1 1 1 1 1 1 1 1 1 1 1 1 1 1 1 1 1 1 1 1 1 1 1 1 1 1 1 1 1 1 1 1 1 1 1 1 1 1 1 1 1 1 1 1 1 1 1 1 1 1 1 1 1 1 1 1 1 1 5 5 5 5 5 5 5 5 5 5 5 5 5 5 5 5 5 5 5 5 5 5 5 5 5 5 5 5 5 5 5 5 5 5 5 5 5 5 5 5 5 5 5 5 5 5 5 5 5 5 5 5 5 5 5 5 5 5 5 5 5 5 5 5 5 5 5 5 5 5 5 5 5 5 5 5 5 5 5 5 5 5 5 5 5 5 5 5 5 5 5 5 5 5 5 5 5 5 5 5 5 5 5 5 5 5 5 5 5 5 5 5 5 5 5 5 5 5 5 5 5 5 5 5 5 5 4 4 4 4 4 4 4 4 4 4 4 4 4 4 4 4 4 4 4 4 4 4 4 4 4 4 4 4 4 4 4 2 2 2 2 2 2 2 2 2 2 3 3 3 3 3 3 3 3 3 3 4 4 4 4 4 4 4 4 4 4 4 4 4 4 4 4 4 4 4 4 4 4 4 4 4 4 4 4 4 4 4 
</DataArray>
<DataArray type="Float64" Name="u" NumberOfComponents="1" format="ascii">
8.6609173873644085e-01 3.9816816088950657e-01 1.0888097810132309e+00 8.0369107640977977e-01 1.0994339838117693e+00 1.6133003757914193e+00 1.6073673950543799e-01 1.6977271723910492e+00 9.3418804400117583e-01 4.2527573225189419e-01 2.2022024244713762e-01 8.9726865154800328e-02 6.0738910709326888e-01 5.3522870526540228e-02 6.3331796078906721e-01 2.4108878352703328e-01 3.8100673654147360e-01 2.2446955180670974e-01 1.1519438714266359e+00 9.4663741947925140e-01 1.0082772659880836e+00 9.5101504891610594e-02 2.3470020043414613e-01 1.3182672352128830e+00 1.0482740336929441e+00 8.0468559414264651e-01 7.2298561161180230e-01 1.1381535739827164e+00 9.2923565512905049e-01 3.0506436817819660e-01 1.7011248902153180e+00 7.2639903018912833e-01 3.9771054130580186e-01 1.9644057750781105e-01 5.8507151118903651e-02 9.7398058615256800e-01 4.0988277201186071e-02 1.6570287328672670e+00 1.0793591030721286e+00 3.2087609790760613e-01 1.2109111395118490e+00 6.2363524846723847e-02 6.9752096703262878e-01 1.6543155678903443e+00 2.4654147886794972e-02 1.1171140084468485e+00 1.2321268157499635e-02 1.3372507030070382e+00 1.0299737746481125e-01 9.7318617466878116e-02 4.1015233415137076e-02 1.6679175533056789e+00 1.7189320939569241e-01 8.2437341143626164e-01 2.7520864760708064e-01 5.6666736399654627e-01 1.2466092473320112e+00 1.3958715112093856e+00 2.1901296060179393e-01 3.9536953242125317e-01 1.3387580893206761e+00 3.3709236372615548e-01 6.4754238757538030e-01 8.9977202241063181e-01 3.4241433944428870e-02 1.4339567092593235e+00 1.0582822989189045e+00 1.3324162853572101e+00 5.7540428193926907e-01 3.7473733046584329e-02 1.3631350470269299e-01 6.2797854600216896e-01 1.2726528812989815e-01 1.4526074996460550e+00 1.7127486756678956e+00 1.0088333978400925e+00 1.8846367382969414e-01 7.4166807877664387e-02 3.1763717109331047e-01 6.4262724710922015e-01 1.7474082688502834e-01 1.1085105936816699e+00 1.2715807240093280e+00 6.3769956188912430e-02 1.6428251741184929e-01 4.8372722529977574e-01 1.3549234881951722e+00 2.8166174964053985e-02 1.6388681123554311e-01 1.5125379748906891e+00 7.8212419374104791e-01 4.3774523803173204e-01 1.9993633745971767e-02 8.0111710545220025e-02 7.4365353153378844e-01 1.0321397205264287e+00 1.3588456156434987e+00 8.9713754912636712e-01 5.1998339797428694e-01 1.2684457092362297e-01 3.4436276235936969e-01 1.3819474751407063e-01 1.1167275167527493e+00 7.8495237488352154e-01 1.6434085858365971e-01 3.4989713459069383e-01 1.3540981932540440e-02 8.4713247474176478e-01 7.8546744443692562e-01 3.0725416712334266e-02 6.7472324154474972e-01 3.4560931597721105e-02 7.3001053457750442e-01 8.4070036810075710e-01 1.7002909687674284e-01 2.5920450218683172e-01 2.0702910639509292e-01 3.2049302095006682e-01 3.4657930858013264e-01 9.9918560237831544e-01 1.9966065527752799e-01 1.2547772165637145e+00 2.0941534905081582e-01 3.0124931892723211e-01 2.7860400500938426e-01 1.5063848689525813e-01 7.6429543882533246e-01 6.0519897764376895e-01 4.2274023412142531e-01 1.4180229543011040e+00 1.3430460803102655e+00 1.3922754734888889e+00 5.8025706496474386e-02 1.5144539091458342e-01 2.4832555797687927e-01 1.1695688440413372e-01 1.1436877117384201e+00 5.4628478364144906e-01 4.5882975999861986e-01 9.9739361541841054e-01 1.0313327321080275e+00 5.0448728596407022e-01 1.6874288609231769e+00 1.1112370351225929e+00 8.5886992461841594e-01 2.4458393100931550e-01 1.1070252871001411e+00 6.8668559065894264e-01 7.2017159905417949e-01 5.9762372921061124e-01 1.1121551162313756e+00 1.6081749168841403e-01 6.7793630027414131e-01 1.3151697551553849e+00 9.7869882418926513e-01 8.3234747496700090e-01 2.5820814961245664e-01 3.1629797309160368e-01 9.8048400058982244e-01 1.3486073459223316e+00 1.1772188204286465e+00 1.6253495522622032e+00 6.3988622037213605e-01 1.3547599196588276e+00 1.7131602266329582e+00 1.6816138244986774e+00 6.0082301779007072e-02 8.2492714140424162e-01 5.7002493747801797e-01 1.6831063493360681e+00 2.2347122950035869e-01 6.4196487931264656e-01 8.1226173009613900e-01 3.0030883596709290e-01 7.0697699570544592e-01 4.3525182476333513e-01 6.7611282471071388e-01 7.1808384256807256e-01 1.3852746458306680e+00 2.5253593801889845e-01 2.9457395520727658e-01 1.1723843351688576e+00 2.6998205240736628e-01 2.7159627650437934e-01 1.3409230784516608e+00 1.2733813332008346e+00 1.6067144551711138e-01 1.1502253496914456e+00 8.4113969199209326e-01 1.3644818241142365e+00 9.4180942834680892e-01 7.9964316827327919e-01 3.0808965270455646e-01 7.7919638766808275e-01 5.5962275329670852e-01 4.0991517117269771e-01 1.4309263422518135e+00 3.3711946203870796e-01 1.0566097637364633e-02 9.7740503284335523e-01 1.0176223090051189e+00 9.9647334635400742e-01 4.2100424846199669e-01 3.2770949998373344e-01 2.0416157114432873e-01 1.1343525581531901e+00 1.5974976841254995e+00 7.7065350127161136e-01 2.8178413833417165e-01 1.4081598034243670e-01 1.4513979868253588e+00 1.7264301129742651e-01 7.0478302482159882e-01 5.2399431687538389e-01 8.9766135444842343e-01 3.3220440492305520e-01 3.4633371027618010e-01 9.7964627046523378e-01 7.6712541822779134e-01 7.4625703413276900e-01 8.3526288590507147e-02 1.0814117338749552e+00 3.5452804376940227e-02 1.3370232111626049e-01 1.3356121514009316e+00 4.5358222780181312e-01 1.1802965653018826e-01 1.1948121521970985e+00 1.9875323095484076e-01 6.8742101014945253e-02 2.3579336930828275e-02 4.7628927201886684e-01 8.1173422618253344e-01 1.9491189953187948e-01 5.5591297166090647e-01 3.0613378965024654e-02 1.2769699414825209e-01 9.3865872541227513e-01 9.3568532512236968e-01 1.3569830785732817e-02 1.5771214626907279e+00 3.7238432497517004e-01 1.3800030548308528e-01 3.5509107785159111e-01 5.0646614591939043e-01 1.5837442918058403e-01 2.7345257306070103e-01 8.7185367477584286e-01 7.3430223787659621e-01 9.2676586822505258e-01 8.8308154558600652e-02 5.3131775116293534e-01 3.1381498891146337e-01 2.4330486475100360e-01 6.9358340532311424e-01 3.9708726832974006e-01 1.2405354199984955e+00 9.8899883551386214e-01 4.5600987497427281e-01 3.2279695298276578e-01 2.5460661351607050e-01 1.2541370185382323e+00 2.1685878762944921e-02 4.7028860850833942e-01 8.6942219366110618e-01 2.8864543394232567e-01 1.1261716384124925e+00 8.6561599090871622e-01 8.5576075894681436e-01 1.0908953660482004e-01 9.9861559611844197e-01 9.9698579273225341e-01 4.4361425493721190e-01 8.4846683743864182e-01 1.3140156216443237e+00 5.7787810181695165e-01 1.0928082167959910e-01 2.5248425471964975e-01 1.4395348443457663e+00 8.3496449032108055e-01 8.5367320205726194e-01 2.1250350874466661e-01 8.1475397707009722e-01 9.9816190715396047e-01 1.5914519972254157e+00 4.7769265913692149e-01 4.3700063255837640e-01 6.5018055832890587e-01 1.1997348381173703e+00 1.0451126945591872e-01 8.5317274438232160e-01 8.9201176503476276e-01 3.1144014479704357e-01 9.7744237098449516e-01 2.3116062587510705e-01 8.8040102821449917e-01 1.1088780068475566e+00 6.4968401681493337e-01 2.9537664728504209e-01 9.1891565473181069e-01 3.8925990798754140e-01 4.0064499123978914e-01 2.6133324159064125e-01 8.9352064453007474e-01 4.4714952243034967e-01 2.6397734846987592e-01 6.6815903952592692e-01 5.2465000777508553e-01 4.1723562108159651e-01 2.9739444575327822e-01 3.5965541732381490e-01 4.8931771332529417e-01 1.0128103652756615e-01 9.7344927264620074e-01 1.1277474968481362e+00 9.6652720349066479e-01 4.0526501808405063e-01 1.0871777999055361e+00 1.4249540082531991e+00 4.1614714068919872e-01 1.7366491173979988e+00 5.0869600892340228e-01 1.3462311231202488e+00 1.7742368162524418e+00 7.5328982658196009e-01 1.2096537647340182e+00 1.0982084446315735e-01 1.4277784466668914e-01 1.6369327558868487e+00 8.7716232869843924e-01 1.5904794329256006e-01 1.0927213851011868e+00 2.2064484367363812e-01 9.9535179416264952e-01 1.4482116195713481e+00 7.9246105298037750e-01 2.0674490283060051e-02 6.2557771981021282e-01 7.2483936240109414e-01 1.2986728935001943e+00 1.0207699708122180e+00 1.0020754261835776e+00 1.4588122376133112e+00 4.8131783283058005e-01 9.6835775261256185e-01 9.3081468137250067e-01 1.1758875375907032e-01 6.9298419046116955e-01 1.3009761949206864e+00 1.6389046649786096e-01 3.6921265041727863e-01 1.3313893294541501e-01 9.0118689963601811e-02 4.7497008988825457e-01 7.6691698051236185e-02 6.9011287733263171e-01 9.9508969523703161e-01 5.3596636294978156e-02 1.0469119474209341e+00 1.3912525015462358e+00 1.0018146323728092e+00 1.3070077790288825e-01 8.1960428326019208e-01 9.7508088123556425e-01 4.5047168361710310e-01 1.2160107198698777e+00 1.0567978942663443e+00 8.8337856695630768e-01 1.9031197249952256e-01 2.5038983491865219e-01 8.5035481692953241e-01 8.4815599885999723e-02 9.5641299577278138e-01 1.0760780988459353e+00 9.9543177125047677e-01 5.8799259636868118e-01 2.1947499007990739e-01 7.6616770802446243e-01 8.1954267765118360e-01 1.0380948096924536e+00 1.3019173257747645e+00 2.3184612454296988e-01 2.4680503994013625e-01 2.9439454124393061e-01 7.5603198157157503e-01 1.0919161171542762e+00 1.8912396097245973e-01 4.6858364044042516e-01 2.3431909607395096e-01 3.3367514694054989e-01 3.6798586984687698e-01 1.1390633355153841e+00 9.1252434723449816e-01 1.8226931457532175e-01 2.5562258269523019e-01 5.4623927785665960e-01 8.0581140413629104e-01 1.6749532695417866e+00 3.2452099282953289e-01 1.4534135168163487e+00 1.0596663147323533e+00 6.9025150696723259e-01 7.6728329607051793e-01 4.8726830512800168e-01 2.7403619214241415e-01 6.2559196925506627e-02 8.9761235446218646e-01 1.2580799628111188e+00 9.2693908415318482e-01 5.6013562494991675e-01 8.7189485063710892e-01 8.1676924807922624e-01 5.2443419802638069e-01 7.7836184265241593e-01 4.8516807037707588e-01 8.8343413020718664e-01 9.0691866973363733e-01 6.0918359436833880e-02 8.9709312756891396e-02 2.3045507655940012e-01 2.9476324381617769e-01 1.1724558873193573e+00 2.7539311633292840e-01 4.6129607993730137e-01 2.1611132175825137e-01 1.5468707369435510e+00 6.9451606504198946e-02 1.3793874195103468e+00 2.3392130955637885e-01 1.0164900673993302e+00 3.0579935637814837e-01 4.7793276738777207e-01 1.5980379452898519e+00 5.5817637024635311e-02 2.8197390614446760e-01 1.1891455077525288e+00 3.9305998503938622e-01 4.2199116256404073e-01 6.9692911325641288e-02 1.0094586591800643e+00 1.2844769537864797e+00 2.9792460024229550e-01 1.3141383107710611e+00 1.8343174186887121e-01 2.0053669389021880e-02 9.8563943908732532e-01 2.6065284771084996e-01 9.4560815063862824e-01 4.4510278484033095e-01 4.3765867601504149e-01 1.0117725086455005e+00 3.5497806170094948e-01 2.5330296298844795e-01 2.8199475022149573e-01 1.3213301628873158e+00 8.0008705563426230e-01 1.0603378530148810e+00 7.3717966416577282e-02 3.4430870399204017e-01 2.5778907776068882e-01 4.2914707068967017e-01 1.5818211073346478e-01 9.2819272259096852e-01 1.4276900723774025e-01 1.1443370343289814e+00 7.4559952738271118e-01 1.0467807844151469e+00 1.1239624814754174e+00 1.1069037275047582e+00 4.7941394392329673e-01 1.0193085420453334e+00 1.1894879629325030e+00 3.3140353221517360e-01 1.0696386317113722e+00 1.0510159380603341e+00 4.1105841499778323e-01 1.9170913191508859e-01 1.1007890545791004e+00 5.8390163235694215e-01 5.5772830115782701e-01 4.9921896455129977e-01 7.6166514824198761e-01 1.0534807845729990e+00 5.8894941149732505e-01 3.1213857856063509e-01 1.0329666476002970e-01 1.0893470977365718e+00 1.2093991301730775e+00 1.2341725594565284e-01 2.2151009727055651e-01 1.1600555723397714e+00 9.0806620542503519e-02 1.1024457999791426e+00 7.9618479769757400e-01 1.4474657093738579e+00 7.7548370020965829e-01 5.1182535355439696e-01 2.4288738918164743e-01 1.1533975552254239e+00 1.8644237611003633e-01 2.5814095719521657e-01 1.2504018383002762e+00 1.0300297184819551e+00 1.7412795270326322e+00 6.7429418530235263e-01 5.7009498378897516e-01 1.0333168378103483e+00 1.1274953656259057e+00 6.3393654438515953e-02 1.3339174530052018e+00 1.2884402788216018e+00 1.6610520942194368e-01 8.7944827526503899e-01 2.3990705913435728e-01 7.1164499171530782e-01 7.6487754746354431e-01 3.0104199144492305e-01 1.1886625555307007e-01 7.1557619223887803e-01 1.4786156300295743e+00 7.5846906756983945e-01 1.6444658245125329e-01 5.0386818272749223e-01 1.3940674690590538e+00 1.0079684093979899e+00 6.6509529676894663e-01 7.8847468003739662e-01 1.7567964877617417e+00 1.3198192985823738e+00 5.1721317506876008e-01 5.3831353313299257e-01 1.7674517237691298e+00 1.7551661134344205e+00 1.1060019420741600e+00 6.9339948790428818e-01 7.8600367235898094e-01 9.1457349135030630e-01 1.2413976883557227e+00 3.1153247363764514e-01 6.6844373212170760e-01 4.3516161300846279e-01 1.0378429177853166e+00 5.0964315056590237e-01 2.2894633782446183e-01 1.2142217476544988e+00 9.3892717006598048e-01 6.4379509567390392e-01 5.8962608892142176e-01 1.2536941614821959e+00 5.0227323723313611e-01 1.7219684319817868e-01 2.2075297032689756e-01 7.9124189753228480e-01 1.0279966082669001e+00 7.4556548978243276e-01 1.3482552269456844e+00 9.0705975219465917e-01 4.9625564367229241e-01 1.2294553659001595e-01 8.3002490215204827e-01 1.2852389313979242e+00 5.4529773573839169e-01 9.1648974599354538e-01 2.5407254520426814e-01 9.6995825837577176e-01 1.1583443358466079e+00 6.5456816274828822e-01 8.8543073957844232e-01 5.1320328815251326e-01 1.0179585862600122e+00 5.5619409970486156e-01 1.1966549001411807e-01 1.7213054930170626e+00 1.2277017768800023e+00 3.9138175981072615e-01 1.0981678821944312e+00 1.5671843243114074e+00 6.9387808949693341e-01 8.8471777576111976e-01 1.7502456373425692e+00 3.5939843474920558e-01 1.7766359580674251e-01 1.6611288897043979e+00 1.0657882505952552e+00 8.3524856979638495e-01 2.0626329738395069e-01 9.2795492690532622e-01 1.3022702635982975e+00 7.5851063728728074e-01 1.0902255459691830e+00 1.3503432860513516e+00 3.5973398059391182e-01 1.1532189032786611e+00 1.0796149396681924e+00 1.3310611719773471e+00 1.2042909139611586e+00 3.9242050126080313e-01 6.8109409040068902e-01 3.9819165111501842e-01 6.7740739318974408e-01 1.7165330831903787e+00 1.7791280666672389e+00 1.7442334631974163e+00 6.6544669958408187e-01 1.1762373222184512e+00 1.0790757453647064e+00 1.0261775923584802e+00 1.2246040712674544e+00 1.3305866740876717e+00 9.9857250843333523e-01 2.4593191389904850e-01 1.7458503731563491e-01 1.0185757541069458e+00 2.8494107960035425e-01 2.5088609957331903e-01 1.5306204009293687e+00 1.1908764452017886e+00 7.2525973062111604e-01 1.1160217223458075e+00 9.3231338832326249e-01 5.3076105247315375e-01 1.0914463383471971e+00 5.9566371069649815e-01 1.3201536876005333e+00 5.0916852672921731e-01 7.9179735767226100e-01 1.0360152773280946e+00 1.4979812479331587e+00 1.6904621466683372e+00 1.2986011858987678e+00 7.1743761986620869e-01 1.0503393701219639e+00 9.6022970256995466e-01 4.7132223931708239e-01 1.2319502662271735e+00 1.1466002601256711e+00 1.0221060746325454e+00 8.2134666023439662e-01 3.8752707700002986e-01 7.7313809118816579e-01 7.5290656083768004e-01 1.2581615140277891e-02 6.7542843284967957e-01 6.335844881