<?xml version="1.0"?>
<VTKFile type="UnstructuredGrid"  byte_order="LittleEndian">
<UnstructuredGrid>
<Piece NumberOfPoints="1077" NumberOfCells=" 2156">
<Points>
<DataArray type="Float32" NumberOfComponents="3" format="ascii">
3.899664 -1.040193 0.000000 18.647690 -1.780326 0.000000 0.321802 -3.672816 0.000000 37.202881 -3.672816 0.000000 0.321802 4.505329 0.000000 37.202881 4.505329 0.000000 3.894685 -0.940422 0.000000 3.879796 -0.841643 0.000000 3.855146 -0.744837 0.000000 3.820980 -0.650966 0.000000 3.777637 -0.560963 0.000000 3.725548 -0.475723 0.000000 3.665231 -0.396094 0.000000 3.597285 -0.322865 0.000000 3.522386 -0.256766 0.000000 3.441277 -0.198453 0.000000 3.354765 -0.148505 0.000000 3.263710 -0.107420 0.000000 3.169017 -0.075604 0.000000 3.071626 -0.053376 0.000000 2.972506 -0.040954 0.000000 2.872642 -0.038464 0.000000 2.773026 -0.045929 0.000000 2.674648 -0.063276 0.000000 2.578487 -0.090331 0.000000 2.485497 -0.126827 0.000000 2.396603 -0.172400 0.000000 2.312688 -0.226598 0.000000 2.234587 -0.288882 0.000000 2.163075 -0.358632 0.000000 2.098864 -0.435156 0.000000 2.042591 -0.517694 0.000000 1.994816 -0.605424 0.000000 1.956013 -0.697475 0.000000 1.926568 -0.792932 0.000000 1.906774 -0.890847 0.000000 1.896828 -0.990246 0.000000 1.896828 -1.090141 0.000000 1.906774 -1.189540 0.000000 1.926568 -1.287454 0.000000 1.956013 -1.382911 0.000000 1.994816 -1.474962 0.000000 2.042591 -1.562693 0.000000 2.098864 -1.645230 0.000000 2.163075 -1.721754 0.000000 2.234587 -1.791505 0.000000 2.312688 -1.853788 0.000000 2.396603 -1.907986 0.000000 2.485497 -1.953559 0.000000 2.578487 -1.990055 0.000000 2.674648 -2.017111 0.000000 2.773026 -2.034457 0.000000 2.872642 -2.041923 0.000000 2.972506 -2.039432 0.000000 3.071626 -2.027011 0.000000 3.169017 -2.004782 0.000000 3.263710 -1.972967 0.000000 3.354765 -1.931881 0.000000 3.441277 -1.881934 0.000000 3.522386 -1.823620 0.000000 3.597285 -1.757521 0.000000 3.665231 -1.684293 0.000000 3.725548 -1.604663 0.000000 3.777637 -1.519423 0.000000 3.820980 -1.429421 0.000000 3.855146 -1.335550 0.000000 3.879796 -1.238744 0.000000 3.894685 -1.139964 0.000000 18.641006 -1.646423 0.000000 18.621023 -1.513850 0.000000 18.587942 -1.383925 0.000000 18.542086 -1.257941 0.000000 18.483915 -1.137148 0.000000 18.414007 -1.022747 0.000000 18.333055 -0.915875 0.000000 18.241863 -0.817595 0.000000 18.141340 -0.728883 0.000000 18.032484 -0.650620 0.000000 17.916376 -0.583585 0.000000 17.794170 -0.528444 0.000000 17.667082 -0.485744 0.000000 17.536373 -0.455911 0.000000 17.403343 -0.439240 0.000000 17.269314 -0.435897 0.000000 17.135620 -0.445917 0.000000 17.003586 -0.469198 0.000000 16.874527 -0.505509 0.000000 16.749725 -0.554491 0.000000 16.630419 -0.615655 0.000000 16.517797 -0.688394 0.000000 16.412977 -0.771985 0.000000 16.316999 -0.865598 0.000000 16.230822 -0.968302 0.000000 16.155296 -1.079076 0.000000 16.091177 -1.196819 0.000000 16.039101 -1.320361 0.000000 15.999582 -1.448475 0.000000 15.973017 -1.579887 0.000000 15.959668 -1.713291 0.000000 15.959668 -1.847361 0.000000 15.973017 -1.980765 0.000000 15.999582 -2.112177 0.000000 16.039101 -2.240291 0.000000 16.091177 -2.363833 0.000000 16.155296 -2.481576 0.000000 16.230822 -2.592350 0.000000 16.316999 -2.695054 0.000000 16.412977 -2.788666 0.000000 16.517797 -2.872258 0.000000 16.630419 -2.944997 0.000000 16.749725 -3.006161 0.000000 16.874527 -3.055143 0.000000 17.003586 -3.091454 0.000000 17.135620 -3.114735 0.000000 17.269314 -3.124754 0.000000 17.403343 -3.121412 0.000000 17.536373 -3.104741 0.000000 17.667082 -3.074908 0.000000 17.794170 -3.032208 0.000000 17.916376 -2.977067 0.000000 18.032484 -2.910032 0.000000 18.141340 -2.831769 0.000000 18.241863 -2.743057 0.000000 18.333055 -2.644777 0.000000 18.414007 -2.537905 0.000000 18.483915 -2.423504 0.000000 18.542086 -2.302711 0.000000 18.587942 -2.176726 0.000000 18.621023 -2.046802 0.000000 18.641006 -1.914229 0.000000 1.318588 -3.672816 0.000000 2.315374 -3.672816 0.000000 3.312160 -3.672816 0.000000 4.308946 -3.672816 0.000000 5.305731 -3.672816 0.000000 6.302517 -3.672816 0.000000 7.299303 -3.672816 0.000000 8.296089 -3.672816 0.000000 9.292875 -3.672816 0.000000 10.289660 -3.672816 0.000000 11.286447 -3.672816 0.000000 12.283233 -3.672816 0.000000 13.280018 -3.672816 0.000000 14.276804 -3.672816 0.000000 15.273590 -3.672816 0.000000 16.270376 -3.672816 0.000000 17.267162 -3.672816 0.000000 18.263948 -3.672816 0.000000 19.260733 -3.672816 0.000000 20.257519 -3.672816 0.000000 21.254305 -3.672816 0.000000 22.251091 -3.672816 0.000000 23.247877 -3.672816 0.000000 24.244663 -3.672816 0.000000 25.241449 -3.672816 0.000000 26.238235 -3.672816 0.000000 27.235020 -3.672816 0.000000 28.231806 -3.672816 0.000000 29.228592 -3.672816 0.000000 30.225378 -3.672816 0.000000 31.222164 -3.672816 0.000000 32.218948 -3.672816 0.000000 33.215736 -3.672816 0.000000 34.212521 -3.672816 0.000000 35.209309 -3.672816 0.000000 36.206093 -3.672816 0.000000 0.321802 3.596646 0.000000 0.321802 2.687963 0.000000 0.321802 1.779281 0.000000 0.321802 0.870598 0.000000 0.321802 -0.038085 0.000000 0.321802 -0.946768 0.000000 0.321802 -1.855450 0.000000 0.321802 -2.764133 0.000000 37.202881 -2.764133 0.000000 37.202881 -1.855450 0.000000 37.202881 -0.946768 0.000000 37.202881 -0.038085 0.000000 37.202881 0.870598 0.000000 37.202881 1.779281 0.000000 37.202881 2.687963 0.000000 37.202881 3.596646 0.000000 36.206093 4.505329 0.000000 35.209309 4.505329 0.000000 34.212521 4.505329 0.000000 33.215736 4.505329 0.000000 32.218948 4.505329 0.000000 31.222164 4.505329 0.000000 30.225378 4.505329 0.000000 29.228592 4.505329 0.000000 28.231806 4.505329 0.000000 27.235020 4.505329 0.000000 26.238235 4.505329 0.000000 25.241449 4.505329 0.000000 24.244663 4.505329 0.000000 23.247877 4.505329 0.000000 22.251091 4.505329 0.000000 21.254305 4.505329 0.000000 20.257519 4.505329 0.000000 19.260733 4.505329 0.000000 18.263948 4.505329 0.000000 17.267162 4.505329 0.000000 16.270376 4.505329 0.000000 15.273590 4.505329 0.000000 14.276804 4.505329 0.000000 13.280018 4.505329 0.000000 12.283233 4.505329 0.000000 11.286447 4.505329 0.000000 10.289660 4.505329 0.000000 9.292875 4.505329 0.000000 8.296089 4.505329 0.000000 7.299303 4.505329 0.000000 6.302517 4.505329 0.000000 5.305731 4.505329 0.000000 4.308946 4.505329 0.000000 3.312160 4.505329 0.000000 2.315374 4.505329 0.000000 1.318588 4.505329 0.000000 7.691642 3.676744 0.000000 12.677631 3.591928 0.000000 21.731274 3.728412 0.000000 12.826752 -2.844759 0.000000 21.796146 -2.840648 0.000000 36.415936 0.416257 0.000000 6.766013 -2.897818 0.000000 28.745844 3.620626 0.000000 24.734980 -2.809397 0.000000 31.722658 3.750420 0.000000 9.791267 -2.809574 0.000000 32.710075 -2.827780 0.000000 27.820478 -2.722114 0.000000 25.714766 3.724870 0.000000 15.761488 3.650190 0.000000 18.831545 3.798032 0.000000 4.632859 3.711263 0.000000 2.861673 3.693756 0.000000 18.706146 -2.123807 0.000000 18.616417 -2.394999 0.000000 18.491419 -2.723418 0.000000 18.275402 -2.924529 0.000000 2.151264 -1.819378 0.000000 1.998927 -1.641231 0.000000 2.315988 -1.958031 0.000000 1.897472 -1.451327 0.000000 1.839250 -1.263965 0.000000 1.817093 -1.049875 0.000000 1.833881 -0.834889 0.000000 1.905508 -0.611486 0.000000 1.999259 -0.439407 0.000000 2.536581 -2.085857 0.000000 2.685755 -2.122888 0.000000 2.938943 -2.147962 0.000000 3.133872 -2.114166 0.000000 3.349378 -2.021188 0.000000 3.560886 -1.929837 0.000000 15.898738 -2.220981 0.000000 15.986001 -2.463874 0.000000 16.184958 -2.697006 0.000000 23.704453 3.647743 0.000000 10.774271 3.687169 0.000000 30.681736 -2.785295 0.000000 33.842640 3.543348 0.000000 34.633118 -2.846132 0.000000 0.960745 1.350464 0.000000 2.306912 -0.124497 0.000000 2.143963 -0.259797 0.000000 36.445862 2.237102 0.000000 4.910297 -2.858331 0.000000 3.825613 -1.595863 0.000000 3.698803 -1.793067 0.000000 36.406013 -1.368038 0.000000 16.900291 -3.229241 0.000000 17.639872 -3.232875 0.000000 14.684826 -2.948900 0.000000 3.908231 -2.792983 0.000000 19.799011 -2.833933 0.000000 0.997518 -2.320212 0.000000 1.125529 3.075856 0.000000 1.104628 -1.508635 0.000000 1.029928 -0.754055 0.000000 1.216255 0.057061 0.000000 3.151780 -2.897074 0.000000 2.323077 -2.852895 0.000000 16.416704 -2.921642 0.000000 35.707699 3.642087 0.000000 15.627957 -2.933203 0.000000 15.244133 -2.403280 0.000000 15.864001 -1.934993 0.000000 13.711489 -2.836884 0.000000 13.220607 -2.079281 0.000000 12.442256 -2.053111 0.000000 12.889756 -1.361928 0.000000 12.096621 -1.301535 0.000000 12.589335 -0.641436 0.000000 11.748574 -0.551148 0.000000 13.428046 -0.749190 0.000000 15.950979 -1.204556 0.000000 15.857692 -1.482602 0.000000 13.062171 -0.051291 0.000000 13.783721 -0.102389 0.000000 13.505345 0.514274 0.000000 14.158247 0.410768 0.000000 16.184137 -0.841850 0.000000 14.458376 -0.139546 0.000000 14.750339 0.359006 0.000000 14.553406 0.898593 0.000000 15.086098 0.774882 0.000000 16.637102 -0.481751 0.000000 12.769538 0.632913 0.000000 15.222967 0.317987 0.000000 15.600030 0.625453 0.000000 15.431672 1.147998 0.000000 15.914928 1.020938 0.000000 16.078539 0.587457 0.000000 16.368124 0.900162 0.000000 17.193535 -0.321492 0.000000 16.251757 1.376755 0.000000 16.759151 1.172191 0.000000 16.629692 1.729401 0.000000 17.121479 1.558184 0.000000 17.245447 1.093232 0.000000 17.606506 -0.333652 0.000000 17.583591 1.393775 0.000000 17.667187 0.941819 0.000000 18.009237 1.229456 0.000000 18.060921 0.756094 0.000000 18.414845 1.077808 0.000000 18.595182 -1.140512 0.000000 18.367329 -0.792643 0.000000 18.031353 -0.522040 0.000000 18.755438 -1.398990 0.000000 18.497141 0.612865 0.000000 18.817514 0.926947 0.000000 18.903603 0.508741 0.000000 19.238457 0.797940 0.000000 19.305391 0.368436 0.000000 19.678343 0.651489 0.000000 18.750826 -1.721270 0.000000 19.706877 0.110023 0.000000 20.182522 0.485927 0.000000 19.567045 1.109506 0.000000 20.275885 -0.063691 0.000000 20.759106 0.311537 0.000000 20.635447 0.915346 0.000000 21.255377 0.730308 
[...]
<CellData Scalars="Label">
<DataArray type="Int32" Name="Label" format="ascii">
1 1 1 1 1 1 1 1 1 1 1 1 1 1 1 1 1 1 1 1 1 1 1 1 1 1 1 1 1 1 1 1 1 1 1 1 1 1 1 1 1 1 1 1 1 1 1 1 1 1 1 1 1 1 1 1 1 1 1 1 1 1 1 1 1 1 1 1 1 1 1 1 1 1 1 1 1 1 1 1 1 1 1 1 1 1 1 1 1 1 1 1 1 1 1 1 1 1 1 1 1 1 1 1 1 1 1 1 1 1 1 1 1 1 1 1 1 1 1 1 1 1 1 1 1 1 1 1 1 1 1 1 1 1 1 1 1 1 1 1 1 1 1 1 1 1 1 1 1 1 1 1 1 1 1 1 1 1 1 1 1 1 1 1 1 1 1 1 1 1 1 1 1 1 1 1 1 1 1 1 1 1 1 1 1 1 1 1 1 1 1 1 1 1 1 1 1 1 1 1 1 1 1 1 1 1 1 1 1 1 1 1 1 1 1 1 1 1 1 1 1 1 1 1 1 1 1 1 1 1 1 1 1 1 1 1 1 1 1 1 1 1 1 1 1 1 1 1 1 1 1 1 1 1 1 1 1 1 1 1 1 1 1 1 1 1 1 1 1 1 1 1 1 1 1 1 1 1 1 1 1 1 1 1 1 1 1 1 1 1 1 1 1 1 1 1 1 1 1 1 1 1 1 1 1 1 1 1 1 1 1 1 1 1 1 1 1 1 1 1 1 1 1 1 1 1 1 1 1 1 1 1 1 1 1 1 1 1 1 1 1 1 1 1 1 1 1 1 1 1 1 1 1 1 1 1 1 1 1 1 1 1 1 1 1 1 1 1 1 1 1 1 1 1 1 1 1 1 1 1 1 1 1 1 1 1 1 1 1 1 1 1 1 1 1 1 1 1 1 1 1 1 1 1 1 1 1 1 1 1 1 1 1 1 1 1 1 1 1 1 1 1 1 1 1 1 1 1 1 1 1 1 1 1 1 1 1 1 1 1 1 1 1 1 1 1 1 1 1 1 1 1 1 1 1 1 1 1 1 1 1 1 1 1 1 1 1 1 1 1 1 1 1 1 1 1 1 1 1 1 1 1 1 1 1 1 1 1 1 1 1 1 1 1 1 1 1 1 1 1 1 1 1 1 1 1 1 1 1 1 1 1 1 1 1 1 1 1 1 1 1 1 1 1 1 1 1 1 1 1 1 1 1 1 1 1 1 1 1 1 1 1 1 1 1 1 1 1 1 1 1 1 1 1 1 1 1 1 1 1 1 1 1 1 1 1 1 1 1 1 1 1 1 1 1 1 1 1 1 1 1 1 1 1 1 1 1 1 1 1 1 1 1 1 1 1 1 1 1 1 1 1 1 1 1 1 1 1 1 1 1 1 1 1 1 1 1 1 1 1 1 1 1 1 1 1 1 1 1 1 1 1 1 1 1 1 1 1 1 1 1 1 1 1 1 1 1 1 1 1 1 1 1 1 1 1 1 1 1 1 1 1 1 1 1 1 1 1 1 1 1 1 1 1 1 1 1 1 1 1 1 1 1 1 1 1 1 1 1 1 1 1 1 1 1 1 1 1 1 1 1 1 1 1 1 1 1 1 1 1 1 1 1 1 1 1 1 1 1 1 1 1 1 1 1 1 1 1 1 1 1 1 1 1 1 1 1 1 1 1 1 1 1 1 1 1 1 1 1 1 1 1 1 1 1 1 1 1 1 1 1 1 1 1 1 1 1 1 1 1 1 1 1 1 1 1 1 1 1 1 1 1 1 1 1 1 1 1 1 1 1 1 1 1 1 1 1 1 1 1 1 1 1 1 1 1 1 1 1 1 1 1 1 1 1 1 1 1 1 1 1 1 1 1 1 1 1 1 1 1 1 1 1 1 1 1 1 1 1 1 1 1 1 1 1 1 1 1 1 1 1 1 1 1 1 1 1 1 1 1 1 1 1 1 1 1 1 1 1 1 1 1 1 1 1 1 1 1 1 1 1 1 1 1 1 1 1 1 1 1 1 1 1 1 1 1 1 1 1 1 1 1 1 1 1 1 1 1 1 1 1 1 1 1 1 1 1 1 1 1 1 1 1 1 1 1 1 1 1 1 1 1 1 1 1 1 1 1 1 1 1 1 1 1 1 1 1 1 1 1 1 1 1 1 1 1 1 1 1 1 1 1 1 1 1 1 1 1 1 1 1 1 1 1 1 1 1 1 1 1 1 1 1 1 1 1 1 1 1 1 1 1 1 1 1 1 1 1 1 1 1 1 1 1 1 1 1 1 1 1 1 1 1 1 1 1 1 1 1 1 1 1 1 1 1 1 1 1 1 1 1 1 1 1 1 1 1 1 1 1 1 1 1 1 1 1 1 1 1 1 1 1 1 1 1 1 1 1 1 1 1 1 1 1 1 1 1 1 1 1 1 1 1 1 1 1 1 1 1 1 1 1 1 1 1 1 1 1 1 1 1 1 1 1 1 1 1 1 1 1 1 1 1 1 1 1 1 1 1 1 1 1 1 1 1 1 1 1 1 1 1 1 1 1 1 1 1 1 1 1 1 1 1 1 1 1 1 1 1 1 1 1 1 1 1 1 1 1 1 1 1 1 1 1 1 1 1 1 1 1 1 1 1 1 1 1 1 1 1 1 1 1 1 1 1 1 1 1 1 1 1 1 1 1 1 1 1 1 1 1 1 1 1 1 1 1 1 1 1 1 1 1 1 1 1 1 1 1 1 1 1 1 1 1 1 1 1 1 1 1 1 1 1 1 1 1 1 1 1 1 1 1 1 1 1 1 1 1 1 1 1 1 1 1 1 1 1 1 1 1 1 1 1 1 1 1 1 1 1 1 1 1 1 1 1 1 1 1 1 1 1 1 1 1 1 1 1 1 1 1 1 1 1 1 1 1 1 1 1 1 1 1 1 1 1 1 1 1 1 1 1 1 1 1 1 1 1 1 1 1 1 1 1 1 1 1 1 1 1 1 1 1 1 1 1 1 1 1 1 1 1 1 1 1 1 1 1 1 1 1 1 1 1 1 1 1 1 1 1 1 1 1 1 1 1 1 1 1 1 1 1 1 1 1 1 1 1 1 1 1 1 1 1 1 1 1 1 1 1 1 1 1 1 1 1 1 1 1 1 1 1 1 1 1 1 1 1 1 1 1 1 1 1 1 1 1 1 1 1 1 1 1 1 1 1 1 1 1 1 1 1 1 1 1 1 1 1 1 1 1 1 1 1 1 1 1 1 1 1 1 1 1 1 1 1 1 1 1 1 1 1 1 1 1 1 1 1 1 1 1 1 1 1 1 1 1 1 1 1 1 1 1 1 1 1 1 1 1 1 1 1 1 1 1 1 1 1 1 1 1 1 1 1 1 1 1 1 1 1 1 1 1 1 1 1 1 1 1 1 1 1 1 1 1 1 1 1 1 1 1 1 1 1 1 1 1 1 1 1 1 1 1 1 1 1 1 1 1 1 1 1 1 1 1 1 1 1 1 1 1 1 1 1 1 1 1 1 1 1 1 1 1 1 1 1 1 1 1 1 1 1 1 1 1 1 1 1 1 1 1 1 1 1 1 1 1 1 1 1 1 1 1 1 1 1 1 1 1 1 1 1 1 1 1 1 1 1 1 1 1 1 1 1 1 1 1 1 1 1 1 1 1 1 1 1 1 1 1 1 1 1 1 1 1 1 1 1 1 1 1 1 1 1 1 1 1 1 1 1 1 1 1 1 1 1 1 1 1 1 1 1 1 1 1 1 1 1 1 1 1 1 1 1 1 1 1 1 1 1 1 1 1 1 1 1 1 1 1 1 1 1 1 1 1 1 1 1 1 1 1 1 1 1 1 1 1 1 1 1 1 1 1 1 1 1 1 1 1 1 1 1 1 1 1 1 1 1 1 1 1 1 1 1 1 1 1 1 1 1 1 1 1 1 1 1 1 1 1 1 1 1 1 1 1 1 1 1 1 1 1 1 1 1 1 1 1 1 1 1 1 1 1 1 1 1 1 1 1 1 1 1 1 1 1 1 1 1 1 1 1 1 1 1 1 1 1 1 1 1 1 1 1 1 1 1 1 1 1 1 1 1 1 1 1 1 1 1 1 1 1 1 1 1 1 1 1 1 1 1 1 1 1 1 1 1 1 1 1 1 1 1 1 1 1 1 1 1 1 1 1 1 1 1 1 1 1 1 1 1 1 1 1 1 1 1 1 1 1 1 1 1 1 1 1 1 1 1 1 1 1 1 1 1 1 1 1 1 1 1 1 1 1 1 1 1 1 1 1 1 1 1 1 1 1 1 1 1 1 1 1 1 1 1 1 1 1 1 1 1 1 1 1 1 1 1 1 1 1 1 1 1 1 1 1 1 1 1 1 5 5 5 5 5 5 5 5 5 5 5 5 5 5 5 5 5 5 5 5 5 5 5 5 5 5 5 5 5 5 5 5 5 5 5 5 5 5 5 5 5 5 5 5 5 5 5 5 5 5 5 5 5 5 5 5 5 5 5 5 5 5 5 5 5 5 5 5 5 5 5 5 5 5 5 5 5 5 5 5 5 5 5 5 5 5 5 5 5 5 5 5 5 5 5 5 5 5 5 5 5 5 5 5 5 5 5 5 5 5 5 5 5 5 5 5 5 5 5 5 5 5 5 5 5 5 4 4 4 4 4 4 4 4 4 4 4 4 4 4 4 4 4 4 4 4 4 4 4 4 4 4 4 4 4 4 4 4 4 4 4 4 4 2 2 2 2 2 2 2 2 2 3 3 3 3 3 3 3 3 3 4 4 4 4 4 4 4 4 4 4 4 4 4 4 4 4 4 4 4 4 4 4 4 4 4 4 4 4 4 4 4 4 4 4 4 4 4 
</DataArray>
<DataArray type="Float64" Name="u" NumberOfComponents="1" format="ascii">
6.5421060886314691e-02 5.6374293758016211e-02 1.6856599181101176e-01 1.0914158022196566e-01 1.6025267932305942e-01 1.3881999615928148e-01 1.6118480139062993e-01 9.5419349289407401e-02 1.1075676155084955e+00 9.2634883665088497e-01 8.5521166945795546e-01 3.2543920174996866e-03 3.9412606066012468e-01 8.9769785842008704e-02 9.9485935505010437e-01 5.1923638194761357e-01 3.5993938450829122e-01 8.2715701997709390e-02 4.2008610957677814e-02 9.0406076230444588e-01 1.3563217072765410e-01 6.6059347723035255e-01 1.0158049930856332e+00 1.1596790587995818e+00 1.0724028973304012e+00 5.6952591409950744e-02 3.8539395856584957e-01 7.2859081548472349e-01 8.6617489544665915e-02 5.5607400642738558e-01 8.3890035724309114e-02 7.5741686444940037e-01 9.9826121002457735e-01 2.0101378734521530e-01 9.0454852273108299e-01 4.1223587498387543e-01 1.6154182299985265e+00 4.9609616147674285e-01 4.9231654287404203e-01 9.5471887714253933e-01 7.5846435555819480e-01 1.5833906614388119e-01 2.6677820713630240e-01 1.4871345326447762e+00 5.0091278907353032e-01 3.7058689121000143e-01 7.0152137733440889e-01 7.6907793784913048e-01 9.9609458600084733e-01 1.1599563560086252e+00 1.4280949133860377e-02 3.0433765903260898e-02 1.2396036555619000e-02 3.2348237799883917e-01 4.4090634647122462e-01 6.4274700053757050e-01 7.9787685448666124e-01 2.1407577282809198e-01 7.8008551865597409e-02 9.7932946903325227e-02 3.8566035348914474e-01 2.9628360307185758e-01 1.1773784292167258e+00 6.9279469502855373e-01 2.8862653363721991e-01 1.5559730875806097e+00 9.4310150923898250e-01 8.9404260307159489e-01 1.4809186761974316e+00 2.0918648122754854e-01 1.2325696833824766e+00 5.7695988898688910e-01 1.8238971961827452e-01 1.0180089278232627e+00 1.2487353786504987e-01 1.3098914826943160e+00 3.0634462533785145e-01 8.5296725148854846e-01 9.7723965921487776e-01 1.2517306658332408e+00 1.3860579621682854e+00 4.1557501470312475e-01 7.1502555615411537e-02 4.1360642147564727e-02 1.4695182250078093e-01 1.1688591310072727e+00 6.2329141354265337e-02 1.7367871827841364e+00 8.9903888698140311e-02 7.2746174921680806e-01 1.2090709667052923e+00 1.1391710203756404e+00 8.8891377326755594e-01 7.4964762594138379e-01 1.2365863883814838e+00 4.7080759716867854e-01 2.8550594614399416e-01 1.0820557199453015e-01 4.9028831433223996e-01 8.2522731522907844e-02 1.2418465199522677e+00 1.2926080774917734e-01 1.0771567126298498e-01 1.6959756600809488e+00 1.1796399148651768e+00 7.7879371938181161e-02 8.0088518587015511e-01 5.1242748479748113e-01 6.1136547065910873e-01 7.8148550901918168e-01 6.9336922348293986e-02 1.4852031268311108e+00 8.0223607312645873e-01 7.8791153773842409e-02 6.0572957376796743e-01 6.4850623896008019e-01 8.0972190913977254e-02 1.7250986124722237e-01 1.3069087990979128e-01 1.1390209096513253e-01 1.0525047330101709e+00 9.5119329050162527e-01 1.5586358302741674e+00 9.9572450416953484e-01 4.9917874360611925e-01 1.6908603721279311e-01 1.3609592773307075e+00 1.9058819147201939e-01 8.2116590951904836e-02 3.2241847010063995e-01 8.3893897666820816e-01 1.9029112279941940e-01 4.1199215071544021e-01 1.1468305888414625e+00 4.8562849522122092e-01 3.4878093159468798e-02 3.1590926015571019e-01 6.9641366600259658e-01 5.1741824364102618e-01 9.9212829285321735e-01 5.2118667136039887e-01 5.8596668384584150e-01 1.0489156189180833e+00 2.6045134772317075e-01 3.9373135539599445e-02 6.0668592203397509e-01 4.0537270521026769e-01 1.4931412993392277e+00 1.2809403434773456e+00 6.8743512102988957e-02 1.0725325981887197e+00 2.7489241751376980e-01 1.3281122866565074e+00 8.2688431347626712e-01 2.1537237042376256e-01 8.4385754930479373e-01 1.6714761375957052e+00 2.5208196788220616e-01 1.0115017891265901e+00 1.3702494147340816e+00 7.3005520119894229e-01 2.5198724091703407e-02 4.8836085740841828e-01 6.4887565381214551e-01 9.2582243143839553e-03 3.2014340411774367e-01 7.6362817831674223e-01 1.3401072372182443e+00 1.4786545872516821e-01 4.1546663839363962e-01 7.4652696251078621e-01 2.1010342286931810e-01 1.2627287959001467e+00 4.0713344730738560e-01 1.7544120121980888e-01 1.0163801616678461e+00 3.6783071616378793e-01 3.3285725741053318e-01 1.6308410844309765e-01 1.2199148472216033e+00 1.0440332667887384e+00 7.9115536665535813e-01 1.8894744436640606e-01 2.1450606176535847e-01 3.6951061145907849e-01 1.5968244406423862e+00 7.5996685300319022e-01 3.5808788218604592e-01 3.4820841760832766e-01 1.3943993541618431e+00 9.8125377855792251e-01 3.0468048421616545e-01 1.1613791782555127e+00 8.5893847757183628e-01 1.0861090051988667e+00 2.5395016262549069e-01 1.2275117450883752e-01 5.2072975493035112e-01 6.3805525986476308e-01 3.8138008528850109e-01 2.6877476836932612e-01 1.0920465334773430e-01 2.4747116045891754e-01 8.7221215302526378e-01 1.3395517501911285e+00 1.1237122206324597e+00 1.0217331300887040e+00 8.3554117711498321e-01 8.4095563411288066e-01 2.8503094542978569e-01 1.1722031949377740e+00 7.7429133721626253e-01 4.3832524879660795e-01 1.6529524749030639e-01 2.3646873546508154e-01 1.7232813929138824e+00 1.0374296183827887e+00 1.3904006911484723e-01 1.4682182317338224e-01 1.0464117079411179e+00 3.2074525454441644e-01 9.1530894441852406e-01 2.2313750895904122e-01 1.3305660560001296e+00 1.1971665521817876e+00 1.0295366344240937e+00 5.3563470550085049e-02 1.3453088578423511e+00 1.0807376395603416e+00 6.9075210984027069e-01 1.0149427696718916e+00 3.7751025960236917e-01 5.4545353083595871e-01 6.9749949359332186e-01 7.5859781170270435e-01 4.5441272632484897e-01 5.2488910002728401e-02 6.6865211696969218e-01 6.2944519534069354e-01 3.3758017824693320e-01 3.2949207150828830e-01 9.5215416227276473e-01 1.0522129104465030e+00 1.1638158606075981e+00 1.0792165651299068e-01 1.2491648520644796e+00 6.7735634891806784e-01 1.0485594427864033e+00 1.5751639336574215e+00 3.5659920110070670e-01 2.0348946363404683e+00 2.9609420829282118e-01 6.5695790252332165e-01 3.2936622053170284e-01 9.9107561056909421e-01 1.3092522736219656e+00 6.3343097152968475e-01 1.4919513611263563e-01 7.6311794141384559e-01 8.0998572421321791e-01 6.5610017495783668e-01 1.2226407079914625e+00 1.3547433314110013e+00 1.2735148703110000e+00 4.5330064418533822e-02 1.5018606634833720e+00 6.1636187765490658e-01 1.8927145665448382e+00 2.8568887514474145e-01 4.4772271016910414e-01 9.0330601332433302e-01 1.0735762329163658e+00 1.4648382814682641e+00 4.1950148808174537e-01 7.0456738489694515e-01 6.6707362048138319e-01 1.5346297301096921e+00 9.2301357359315372e-01 1.2422592196563009e+00 2.0078418583568852e-01 5.2210963930251042e-01 6.4692832701110392e-01 1.0743785938536243e+00 1.0610554935090344e+00 1.5139407461170469e+00 9.5764228103863529e-03 1.2485177798093927e+00 1.0610278535444190e-01 8.1479840880971835e-02 1.4706490707195430e+00 1.3745745964672129e+00 6.1922998645863303e-01 2.2060294599695057e-01 7.6641754400327389e-02 3.7757317742766933e-01 8.0354137564762385e-01 9.5796062598114662e-01 7.5099392215691552e-01 1.0521211542472597e+00 9.6947900350683458e-01 1.3892555315242352e+00 9.6687636234151819e-01 8.3101759745011150e-01 8.8377813072062528e-01 1.3633186211355446e+00 1.1680046970107774e-01 3.9816796407296559e-02 1.4414369558124274e-01 2.0939796728981324e+00 1.1623544690042973e+00 1.4338702655979751e+00 8.7912897412930102e-01 1.2700297891021446e+00 3.8639624450137317e-01 9.4082970921189835e-02 1.0162453561927129e+00 9.7502820628989018e-01 8.7237709585300571e-01 1.4610725018431756e+00 8.0727494401175182e-01 8.2678079526311632e-01 7.1005831457182245e-01 6.2311673329779438e-01 1.1004321888275168e+00 9.4829197998944992e-01 8.7615714460309779e-01 6.3471054008207384e-01 2.7340639785613979e-01 1.4253099927415143e+00 5.4558272169905431e-01 4.1655087316947248e-01 4.9394910947968762e-01 6.6019849113729512e-01 1.7738581500331070e+00 9.2537786260464527e-01 8.0282336720465503e-02 1.5762821131396549e+00 1.3145462096439227e+00 8.7208264264894808e-01 8.5408136595199013e-01 1.0691481716982865e+00 2.1405628500572029e+00 1.8237111841875999e+00 1.4176798939799382e+00 1.5621867057533960e+00 2.1709571491949973e+00 2.7288111650027969e-01 3.5306209985646858e-01 4.6591439914968535e-01 4.3831142955672309e-01 1.2588802613428984e+00 1.5336602749699206e+00 9.7102855623259177e-01 3.2479618247425492e-02 7.2871417401710792e-01 6.1853678488751540e-01 2.0034338252003553e-01 8.3953409422748293e-01 1.0292365169834958e+00 7.2160018957378913e-01 9.9423758222950853e-01 1.3939749750106190e+00 1.4023861834916167e+00 2.0319377355769843e+00 8.9659993870324439e-01 7.2555031990069807e-01 8.0559972457319405e-03 3.7700015061432535e-01 7.6925221673336375e-01 7.2378694451592773e-01 2.0072091635092817e+00 1.3947901688551902e+00 9.0376178149574257e-02 1.8646957068509589e+00 5.4574732954213911e-01 3.6087479789152943e-01 8.5219446362310464e-02 1.0040575416932997e+00 1.1355544151699239e+00 9.9106063890926865e-01 8.0182793336626046e-01 8.6470041468121289e-02 2.0985748690947954e+00 2.0650524471246082e-01 1.4810392241706749e+00 2.0982112801976087e+00 2.0345912230971082e+00 4.4520415350767123e-01 1.3308044027996404e+00 2.0912330112853446e+00 5.6169998677494914e-01 6.8346676646430238e-01 8.7356970650726939e-01 1.9719981457402239e-01 7.4567809365356352e-01 4.1564318932744426e-01 8.9899739207387575e-01 9.4177638719032597e-01 6.3696680530972283e-01 8.1166285252462389e-01 1.6041066996904352e-01 1.8662371830831836e-01 9.4836205725767897e-01 4.9004001247082804e-02 3.9807574950128974e-02 7.3381766380965396e-01 1.4685806391382838e+00 1.7002665327268836e+00 7.6185768201639870e-01 1.4119019263229604e+00 5.8103686345782013e-01 1.1423747535454882e+00 4.5025353339160287e-02 8.6525227955667261e-01 6.6661015752855712e-02 6.9541626019522373e-01 5.6348751027326749e-01 1.2897347028166020e+00 2.1961312558410578e-01 1.5553334313823366e+00 1.5893327129229680e+00 6.3338610994516376e-02 7.7817137263110969e-01 1.3301116246043627e+00 1.2059172799069322e+00 8.9703545514872229e-01 1.2428632572891116e+00 1.3728754770100995e+00 3.9819250965041453e-01 7.3142352403077771e-01 2.6393365052629525e-01 3.6220805322458449e-01 6.2880932551223712e-01 1.8936155480055325e-02 2.0457217049458444e-02 7.8869389261794298e-01 7.5966815819907607e-01 1.6694234440839206e+00 3.3989505565508382e-01 1.3521209340776243e+00 1.1328526684335150e+00 4.8072347635964618e-01 4.2192939937426599e-01 3.1994443418092910e-01 5.6625294197975062e-01 1.6878241997269385e+00 1.1953550584439405e+00 1.5242719032697618e+00 4.7271117625856507e-02 4.2672161192718927e-01 1.5227130845857482e+00 1.9259153458780355e-02 4.9635594988942128e-01 1.1067266503426578e+00 5.2153130508695400e-01 1.5268661049016468e+00 2.2350903929555044e-01 5.6359162074458513e-01 7.8645385351547836e-01 3.8677691719420071e-01 1.4055409888636174e+00 1.3983909046942307e+00 2.8653415259808301e-01 1.0155140571194192e+00 6.9964370336225723e-01 2.4800897290454996e-01 9.0946326618562967e-01 1.3407338240059810e+00 1.3026204590555390e+00 4.4045093370933408e-01 1.5987150713684368e+00 7.6268574440443881e-01 6.3781109755456389e-01 5.6712639328181735e-01 1.0553533586857067e+00 1.6733710998619761e-01 4.2293490563685959e-01 8.1407677018783953e-01 4.0254812693231307e-02 7.4491044898869494e-03 1.6789939767856890e+00 1.3554903819876496e+00 6.3929662468135529e-01 8.1345269566160749e-01 1.6121344167071778e+00 2.4352588054587462e-01 5.4462185544942887e-01 6.6987262073204068e-01 9.8251017466109858e-01 1.3507265391749774e+00 4.8261345427943841e-01 9.0033056584448334e-01 1.0628047615025999e+00 1.2646338590005874e+00 1.7572276138030829e+00 1.0223767313876917e+00 9.8130101989848983e-01 1.8035763753821719e+00 1.2801624656444380e-01 1.2915206314269359e+00 4.9657963036340097e-01 1.5142946354796828e-02 1.2884330843311411e+00 1.0221184150065208e+00 1.4091144967074698e-01 8.0671930033270811e-01 1.2366699176090630e+00 4.7174425366704065e-01 8.5027310173454040e-01 7.6302634101139732e-01 1.3832219835615751e+00 1.5167487960065613e+00 3.6170330149995211e-01 7.3231575532944881e-01 4.7361588940125698e-01 4.4989381785609550e-01 7.4306846719708974e-01 9.9565180159752831e-01 1.3529044252250162e+00 1.4112632525315552e+00 1.5561908612337021e+00 1.5591275697421689e+00 7.8398556149794252e-01 8.9534153292273655e-01 6.4585339952128618e-01 9.6977404363711517e-01 1.3576678938360633e+00 8.6889816824341048e-01 4.8642353568973129e-01 3.4079251754335838e-01 1.5971455116526931e+00 1.9821523227067490e+00 9.2297985579753616e-01 7.3814715983109935e-01 5.8367398946230498e-01 1.0007620364122047e+00 3.8590344867559084e-01 5.3948177344266945e-01 1.1021170448246345e-02 4.4500136536771873e-01 1.0286217907382911e+00 1.1617001606481641e+00 1.1334345862720090e+00 1.5294125006248971e+00 9.5974856030699018e-01 8.2957959823443028e-01 1.3651171569299159e+00 1.1299388317006793e+00 1.8579364632582092e+00 1.6185039955064995e+00 3.1452235311998943e-02 1.2163406146384070e-01 1.0672491729411512e-01 1.2152134023132872e+00 9.8555341179020051e-01 2.1907002654179836e-01 1.6419234972691563e+00 1.3298501692067581e+00 3.7289478534830986e-02 9.9806758530967299e-01 1.0160730692839051e+00 1.3628822902716438e+00 4.6572536644314688e-01 1.4462070531774063e+00 1.1139096837575222e+00 1.0131602123704260e+00 9.3576734800766692e-01 7.4758715032421064e-01 1.0129252101636494e+00 1.4813809956482769e+00 1.2366408127213022e+00 1.4760349770896912e+00 9.3595288978771429e-01 1.4076540927880468e+00 8.0064160066755619e-01 3.5983317877299215e-01 7.3166794607771024e-01 9.9259583707972876e-01 9.4056485175193627e-01 5.8968489888048858e-01 9.8704594327261896e-01 1.9337307337562868e+00 1.0012496252587346e+00 7.4732774916436140e-01 5.3259356784871414e-01 1.0001331913463292e+00 3.4920011545707791e-01 1.0041924260392985e+00 1.1708846409451783e+00 1.0240737506813729e+00 1.4442168344526150e+00 9.9712596670391751e-01 3.8598724424002739e-01 1.1620231344825030e-01 4.9855565066544294e-01 3.0694570266518162e-01 1.0034206401088224e+00 1.4072460509127787e+00 9.0805543935116417e-01 1.0265172187695759e+00 3.3709296109090947e-01 9.9615316047850233e-01 9.8336125589483081e-01 2.8880979188800615e-01 7.1466163057278742e-01 7.3300208792781929e-01 1.0120222022338308e+00 8.2377277343785560e-01 6.2794703922028805e-01 1.2446015028761381e-01 9.9919528769484156e-01 8.9976509669808569e-01 1.0040655093373412e+00 1.4850081135933291e+00 1.5039982433351557e+00 1.0212754061220610e+00 9.9403721168180115e-01 5.8865812394906558e-01 2.0157749933712121e-01 9.7128537800123960e-01 1.1054646563292718e+00 1.0154084034439972e+00 1.0027975725290745e+00 1.0173032220875005e+00 3.9667370241434186e-01 9.9113858502349617e-01 1.8007939199861644e+00 7.4884158670336709e-01 4.6224961752654803e-01 1.1163305522666291e+00 1.0003949600822892e+00 1.0070880098752091e+00 1.1295954229927427e+00 8.3097925841944353e-01 9.9388746638030545e-01 9.8587772026236853e-01 8.5860660008996392e-01 9.4892091215461949e-01 1.0829985053746494e+00 9.9116548180565733e-01 1.0487455022574759e+00 1.0166508193301653e+00 2.6999511467797505e-01 9.9838337210340578e-01 9.4733692309779938e-01 1.4123913213283146e+00 9.9271051816685851e-01 1.1253135065731521e+00 9.8136653230492132e-01 9.9181267730941092e-01 8.7001266154698431e-01 1.0386956509567826e+00 6.8617042916300419e-01 1.0966837471983384e+00 1.2370092653585116e+00 8.1202154174056240e-02 1.0333270071847771e+00 1.0078622307714917e+00 1.0623972974785945e+00 1.0088474489283621e+00 9.2675596392035331e-01 9.8538467736990609e-01 6.7439245576802076e-01 1.1312976777444050e-01 1.0185584282031959e+00 1.3928924070926820e+00 1.0331878308161331e+00 1.0175811418532537e+00 1.0140627468780932e+00 2.1700809241113403e+00 1.0573089041249810e+00 8.5375264884259305e-01 9.7180954940268749e-01 1.0078602654250735e+00 8.0980860900383322