<?xml version="1.0"?>
<VTKFile type="UnstructuredGrid"  byte_order="LittleEndian">
<UnstructuredGrid>
<Piece NumberOfPoints="1439" NumberOfCells=" 2880">
<Points>
<DataArray type="Float32" NumberOfComponents="3" format="ascii">
0.753594 -3.845794 0.000000 0.753594 -2.760577 0.000000 1.765116 -3.845794 0.000000 2.107458 -3.139012 0.000000 0.753594 -1.643830 0.000000 1.442990 -2.405185 0.000000 2.747439 -3.845794 0.000000 0.753594 3.910406 0.000000 0.753594 -0.526406 0.000000 0.753594 0.591018 0.000000 0.753594 1.708442 0.000000 0.753594 2.825190 0.000000 3.181227 -2.562095 0.000000 2.285273 -2.234723 0.000000 1.581465 -1.220617 0.000000 3.729762 -3.845794 0.000000 1.765116 3.910406 0.000000 1.984585 -0.228081 0.000000 1.581465 1.285229 0.000000 1.530665 2.283370 0.000000 2.107458 3.203624 0.000000 3.106417 -1.795696 0.000000 3.955668 -2.721031 0.000000 3.955668 -1.740091 0.000000 2.656122 -0.790522 0.000000 4.712085 -3.845794 0.000000 4.712085 -2.876269 0.000000 2.747439 3.910406 0.000000 2.387704 0.764455 0.000000 3.043609 0.195757 0.000000 2.285273 2.299335 0.000000 2.790824 1.756991 0.000000 3.018073 3.116643 0.000000 3.402966 -1.084318 0.000000 4.712085 -1.906744 0.000000 4.712085 -0.937219 0.000000 3.699515 -0.372940 0.000000 5.694408 -2.876269 0.000000 5.694408 -3.845794 0.000000 3.729762 3.910406 0.000000 3.440908 1.173421 0.000000 4.081045 0.598780 0.000000 3.441495 2.486286 0.000000 4.081025 3.203092 0.000000 5.510222 -0.937219 0.000000 5.694408 -1.906744 0.000000 4.712085 0.032306 0.000000 6.676731 -2.876269 0.000000 6.431150 -1.906744 0.000000 6.676731 -3.845794 0.000000 4.712085 3.910406 0.000000 4.712085 1.971356 0.000000 4.712085 1.001831 0.000000 4.887716 3.071986 0.000000 6.308360 -0.937219 0.000000 5.694408 0.032306 0.000000 7.659054 -3.845794 0.000000 7.904634 -1.906744 0.000000 7.781844 -2.876269 0.000000 7.045102 -1.421982 0.000000 5.694408 3.910406 0.000000 5.694408 2.940881 0.000000 5.939989 1.971356 0.000000 5.694408 1.001831 0.000000 6.676731 3.910406 0.000000 6.676731 0.032306 0.000000 7.659054 -0.937219 0.000000 8.641376 -3.845794 0.000000 8.641376 -1.906744 0.000000 8.641376 -2.876269 0.000000 6.676731 2.940881 0.000000 6.676731 1.971356 0.000000 7.045102 1.001831 0.000000 7.659054 3.910406 0.000000 8.150215 0.032306 0.000000 9.009748 -0.937219 0.000000 9.623699 -3.845794 0.000000 9.623699 -2.876269 0.000000 9.623699 -1.906744 0.000000 7.659054 2.940881 0.000000 7.659054 1.971356 0.000000 7.843239 1.001831 0.000000 8.641376 3.910406 0.000000 8.518586 2.940881 0.000000 10.606022 -3.845794 0.000000 8.641376 1.001831 0.000000 9.623699 0.032306 0.000000 10.237651 -0.937219 0.000000 10.606022 -2.876269 0.000000 10.360441 -1.906744 0.000000 8.395796 1.971356 0.000000 9.500909 2.940881 0.000000 9.623699 3.910406 0.000000 11.588346 -3.845794 0.000000 9.623699 1.001831 0.000000 9.869280 1.971356 0.000000 10.606022 0.032306 0.000000 11.219974 -0.937219 0.000000 11.833926 -1.906744 0.000000 11.711136 -2.876269 0.000000 10.606022 2.940881 0.000000 10.606022 3.910406 0.000000 12.570668 -3.845794 0.000000 10.851603 1.971356 0.000000 10.974393 1.001831 0.000000 11.588346 0.032306 0.000000 11.956717 -0.937219 0.000000 12.570668 -1.906744 0.000000 12.570668 -2.876269 0.000000 11.588346 2.940881 0.000000 11.588346 3.910406 0.000000 13.552991 -3.845794 0.000000 11.588346 1.971356 0.000000 12.202297 1.001831 0.000000 12.570668 0.032306 0.000000 13.184620 -0.937219 0.000000 13.307410 -1.906744 0.000000 13.552991 -2.876269 0.000000 12.570668 3.910406 0.000000 12.570668 2.940881 0.000000 14.412523 -2.876269 0.000000 14.535314 -3.845794 0.000000 12.816249 1.971356 0.000000 12.939039 1.001831 0.000000 13.552991 0.032306 0.000000 14.166943 -0.937219 0.000000 14.535314 -1.906744 0.000000 13.552991 3.910406 0.000000 13.675781 2.940881 0.000000 15.640427 -2.876269 0.000000 15.517636 -3.845794 0.000000 13.798572 1.971356 0.000000 13.921362 1.001831 0.000000 14.535314 0.032306 0.000000 15.517636 -0.937219 0.000000 15.763217 -1.906744 0.000000 14.535314 3.910406 0.000000 14.535314 2.940881 0.000000 16.499960 -2.876269 0.000000 16.499960 -3.845794 0.000000 14.535314 1.971356 0.000000 16.499960 -1.906744 0.000000 15.149265 1.001831 0.000000 15.517636 0.032306 0.000000 16.499960 -0.937219 0.000000 15.517636 3.910406 0.000000 15.517636 2.940881 0.000000 17.236702 -1.906744 0.000000 17.359491 -2.876269 0.000000 17.482283 -3.845794 0.000000 15.517636 1.971356 0.000000 17.298098 -0.937219 0.000000 16.499960 1.001831 0.000000 16.991121 0.032306 0.000000 16.499960 3.910406 0.000000 16.499960 2.940881 0.000000 16.499960 1.971356 0.000000 18.096233 -0.937219 0.000000 18.219025 -1.906744 0.000000 18.464605 -2.876269 0.000000 18.464605 -3.845794 0.000000 27.605574 0.276226 0.000000 17.482283 1.971356 0.000000 17.850653 1.001831 0.000000 18.464605 0.032306 0.000000 17.482283 3.910406 0.000000 17.605072 2.940881 0.000000 18.832975 -0.937219 0.000000 19.692509 -1.906744 0.000000 19.446928 -3.845794 0.000000 19.569717 -2.876269 0.000000 27.520029 0.289684 0.000000 27.540098 0.193106 0.000000 27.585091 0.374791 0.000000 27.639286 0.181368 0.000000 27.685600 0.091984 0.000000 20.429251 -1.906744 0.000000 19.631113 -0.937219 0.000000 27.414629 0.203855 0.000000 20.429251 -2.876269 0.000000 18.464605 1.971356 0.000000 19.078556 1.001831 0.000000 19.938089 0.032306 0.000000 18.464605 3.910406 0.000000 18.464605 2.940881 0.000000 20.429251 -0.937219 0.000000 20.429251 -3.845794 0.000000 27.373310 0.337022 0.000000 27.500221 0.446086 0.000000 27.463064 0.095316 0.000000 27.567564 0.093329 0.000000 27.578220 0.475227 0.000000 27.743656 0.009740 0.000000 27.629671 -0.001943 0.000000 21.165993 -1.906744 0.000000 27.269873 0.247216 0.000000 27.307783 0.096712 0.000000 21.288784 -2.876269 0.000000 27.585091 0.575663 0.000000 27.082502 0.205568 0.000000 26.993383 0.050142 0.000000 22.393896 -0.937219 0.000000 21.411573 -0.937219 0.000000 27.163996 0.075414 0.000000 23.376219 -0.937219 0.000000 19.201347 1.971356 0.000000 20.429251 1.001831 0.000000 19.815300 1.486593 0.000000 20.920412 0.032306 0.000000 19.446928 3.910406 0.000000 19.446928 2.940881 0.000000 21.411573 -3.845794 0.000000 27.329443 0.478401 0.000000 27.493488 0.544497 0.000000 27.372364 -0.019828 0.000000 27.482159 -0.011508 0.000000 27.812368 -0.063834 0.000000 27.686342 -0.082226 0.000000 27.549597 -0.102473 0.000000 22.639477 -1.906744 0.000000 22.271107 -2.876269 0.000000 27.103582 0.388943 0.000000 27.247334 -0.067023 0.000000 27.508129 0.655206 0.000000 27.605574 0.674228 0.000000 26.839066 0.203131 0.000000 27.039005 -0.172815 0.000000 26.854874 -0.069237 0.000000 22.885057 0.032306 0.000000 21.902735 0.032306 0.000000 24.424721 -0.685532 0.000000 23.376219 -1.906744 0.000000 24.235554 -1.245927 0.000000 23.718767 -0.253431 0.000000 34.379772 1.364515 0.000000 28.068811 -0.219780 0.000000 34.457050 1.656509 0.000000 27.976475 -0.179673 0.000000 27.890459 -0.127366 0.000000 34.438515 1.557360 0.000000 29.053411 0.475227 0.000000 34.412708 1.459851 0.000000 25.309906 -0.112322 0.000000 26.372160 0.354326 0.000000 26.396891 -0.019489 0.000000 27.124243 0.568661 0.000000 29.151459 0.501140 0.000000 26.643917 -0.046322 0.000000 29.252947 0.521008 0.000000 25.092836 -0.611252 0.000000 26.628498 0.191025 0.000000 25.757307 -0.370106 0.000000 20.306461 2.940881 0.000000 21.411573 1.971356 0.000000 20.674831 1.971356 0.000000 21.779945 1.001831 0.000000 20.429251 3.910406 0.000000 22.393896 -3.845794 0.000000 27.393801 0.625993 0.000000 27.282801 0.628726 0.000000 27.437994 -0.171324 0.000000 27.768887 -0.174262 0.000000 27.617033 -0.193438 0.000000 23.376219 -2.876269 0.000000 26.823015 0.479639 0.000000 27.259052 -0.285374 0.000000 27.415060 0.751396 0.000000 27.539446 0.768720 0.000000 27.639286 0.769086 0.000000 27.114475 -0.462844 0.000000 26.870684 -0.341604 0.000000 26.663763 -0.365427 0.000000 24.036688 0.381198 0.000000 22.578081 1.001831 0.000000 23.376219 1.001831 0.000000 24.604649 -0.152508 0.000000 24.937681 -1.498160 0.000000 24.036341 -2.286857 0.000000 24.515179 -1.867861 0.000000 34.339886 1.271871 0.000000 34.456039 1.251061 0.000000 34.494709 1.340873 0.000000 27.956882 -0.286719 0.000000 28.046522 -0.325655 0.000000 28.165749 -0.246941 0.000000 34.551655 1.561978 0.000000 34.569622 1.658096 0.000000 34.468212 1.756755 0.000000 27.844698 -0.235939 0.000000 34.526638 1.433297 0.000000 29.046541 0.575663 0.000000 29.143213 0.400267 0.000000 29.046541 0.374791 0.000000 25.192614 0.382115 0.000000 25.616091 0.281900 0.000000 26.088297 0.019872 0.000000 26.522457 0.629231 0.000000 26.198055 0.577028 0.000000 26.421619 -0.393304 0.000000 26.976845 0.657947 0.000000 27.144503 0.744902 0.000000 29.239883 0.425742 0.000000 29.143333 0.601255 0.000000 29.342178 0.442844 0.000000 29.347553 0.552967 0.000000 29.240126 0.626846 0.000000 25.511599 -1.004757 0.000000 25.843243 -0.781083 0.000000 26.132267 -0.586151 0.000000 27.685600 0.858470 0.000000 28.265480 -0.260648 0.000000 29.433708 0.678030 0.000000 34.644661 1.310030 0.000000 29.333147 0.662168 0.000000 21.411573 2.940881 0.000000 22.393896 1.971356 0.000000 21.411573 3.910406 0.000000 23.376219 -3.845794 0.000000 27.296247 0.776074 0.000000 27.533222 -0.327924 0.000000 27.714251 -0.313015 0.000000 24.037230 -3.182944 0.000000 26.806683 0.761022 0.000000 27.431900 -0.490506 0.000000 27.456358 0.887449 0.000000 27.572174 0.860808 0.000000 27.261868 -0.619639 0.000000 26.802830 -0.648470 0.000000 26.446350 -0.767119 0.000000 24.080404 1.540823 0.000000 24.778536 0.659435 0.000000 23.376219 1.971356 0.000000 25.511700 -1.704370 0.000000 25.092791 -2.124445 0.000000 24.604551 -2.614044 0.000000 34.293266 1.182425 0.000000 34.410843 1.164350 0.000000 34.586693 1.192067 0.000000 27.851919 -0.372361 0.000000 28.018518 -0.458686 0.000000 28.169762 -0.365238 0.000000 34.716488 1.660167 0.000000 34.699265 1.489292 0.000000 34.580444 1.755278 0.000000 34.471939 1.857552 0.000000 29.026058 0.674228 0.000000 29.126287 0.296394 0.0
[...]
<CellData Scalars="Label">
<DataArray type="Int32" Name="Label" format="ascii">
0 0 0 0 0 0 0 0 0 0 0 0 0 0 0 0 0 0 0 0 0 0 0 0 0 0 0 0 0 0 0 0 0 0 0 0 0 0 0 0 0 0 0 0 0 0 0 0 0 0 0 0 0 0 0 0 0 0 0 0 0 0 0 0 0 0 0 0 0 0 0 0 0 0 0 0 0 0 0 0 0 0 0 0 0 0 0 0 0 0 0 0 0 0 0 0 0 0 0 0 0 0 0 0 0 0 0 0 0 0 0 0 0 0 0 0 0 0 0 0 0 0 0 0 0 0 0 0 0 0 0 0 0 0 0 0 0 0 0 0 0 0 0 0 0 0 0 0 0 0 0 0 0 0 0 0 0 0 0 0 0 0 0 0 0 0 0 0 0 0 0 0 0 0 0 0 0 0 0 0 0 0 0 0 0 0 0 0 0 0 0 0 0 0 0 0 0 0 0 0 0 0 0 0 0 0 0 0 0 0 0 0 0 0 0 0 0 0 0 0 0 0 0 0 0 0 0 0 0 0 0 0 0 0 0 0 0 0 0 0 0 0 0 0 0 0 0 0 0 0 0 0 0 0 0 0 0 0 0 0 0 0 0 0 0 0 0 0 0 0 0 0 0 0 0 0 0 0 0 0 0 0 0 0 0 0 0 0 0 0 0 0 0 0 0 0 0 0 0 0 0 0 0 0 0 0 0 0 0 0 0 0 0 0 0 0 0 0 0 0 0 0 0 0 0 0 0 0 0 0 0 0 0 0 0 0 0 0 0 0 0 0 0 0 0 0 0 0 0 0 0 0 0 0 0 0 0 0 0 0 0 0 0 0 0 0 0 0 0 0 0 0 0 0 0 0 0 0 0 0 0 0 0 0 0 0 0 0 0 0 0 0 0 0 0 0 0 0 0 0 0 0 0 0 0 0 0 0 0 0 0 0 0 0 0 0 0 0 0 0 0 0 0 0 0 0 0 0 0 0 0 0 0 0 0 0 0 0 0 0 0 0 0 0 0 0 0 0 0 0 0 0 0 0 0 0 0 0 0 0 0 0 0 0 0 0 0 0 0 0 0 0 0 0 0 0 0 0 0 0 0 0 0 0 0 0 0 0 0 0 0 0 0 0 0 0 0 0 0 0 0 0 0 0 0 0 0 0 0 0 0 0 0 0 0 0 0 0 0 0 0 0 0 0 0 0 0 0 0 0 0 0 0 0 0 0 0 0 0 0 0 0 0 0 0 0 0 0 0 0 0 0 0 0 0 0 0 0 0 0 0 0 0 0 0 0 0 0 0 0 0 0 0 0 0 0 0 0 0 0 0 0 0 0 0 0 0 0 0 0 0 0 0 0 0 0 0 0 0 0 0 0 0 0 0 0 0 0 0 0 0 0 0 0 0 0 0 0 0 0 0 0 0 0 0 0 0 0 0 0 0 0 0 0 0 0 0 0 0 0 0 0 0 0 0 0 0 0 0 0 0 0 0 0 0 0 0 0 0 0 0 0 0 0 0 0 0 0 0 0 0 0 0 0 0 0 0 0 0 0 0 0 0 0 0 0 0 0 0 0 0 0 0 0 0 0 0 0 0 0 0 0 0 0 0 0 0 0 0 0 0 0 0 0 0 0 0 0 0 0 0 0 0 0 0 0 0 0 0 0 0 0 0 0 0 0 0 0 0 0 0 0 0 0 0 0 0 0 0 0 0 0 0 0 0 0 0 0 0 0 0 0 0 0 0 0 0 0 0 0 0 0 0 0 0 0 0 0 0 0 0 0 0 0 0 0 0 0 0 0 0 0 0 0 0 0 0 0 0 0 0 0 0 0 0 0 0 0 0 0 0 0 0 0 0 0 0 0 0 0 0 0 0 0 0 0 0 0 0 0 0 0 0 0 0 0 0 0 0 0 0 0 0 0 0 0 0 0 0 0 0 0 0 0 0 0 0 0 0 0 0 0 0 0 0 0 0 0 0 0 0 0 0 0 0 0 0 0 0 0 0 0 0 0 0 0 0 0 0 0 0 0 0 0 0 0 0 0 0 0 0 0 0 0 0 0 0 0 0 0 0 0 0 0 0 0 0 0 0 0 0 0 0 0 0 0 0 0 0 0 0 0 0 0 0 0 0 0 0 0 0 0 0 0 0 0 0 0 0 0 0 0 0 0 0 0 0 0 0 0 0 0 0 0 0 0 0 0 0 0 0 0 0 0 0 0 0 0 0 0 0 0 0 0 0 0 0 0 0 0 0 0 0 0 0 0 0 0 0 0 0 0 0 0 0 0 0 0 0 0 0 0 0 0 0 0 0 0 0 0 0 0 0 0 0 0 0 0 0 0 0 0 0 0 0 0 0 0 0 0 0 0 0 0 0 0 0 0 0 0 0 0 0 0 0 0 0 0 0 0 0 0 0 0 0 0 0 0 0 0 0 0 0 0 0 0 0 0 0 0 0 0 0 0 0 0 0 0 0 0 0 0 0 0 0 0 0 0 0 0 0 0 0 0 0 0 0 0 0 0 0 0 0 0 0 0 0 0 0 0 0 0 0 0 0 0 0 0 0 0 0 0 0 0 0 0 0 0 0 0 0 0 0 0 0 0 0 0 0 0 0 0 0 0 0 0 0 0 0 0 0 0 0 0 0 0 0 0 0 0 0 0 0 0 0 0 0 0 0 0 0 0 0 0 0 0 0 0 0 0 0 0 0 0 0 0 0 0 0 0 0 0 0 0 0 0 0 0 0 0 0 0 0 0 0 0 0 0 0 0 0 0 0 0 0 0 0 0 0 0 0 0 0 0 0 0 0 0 0 0 0 0 0 0 0 0 0 0 0 0 0 0 0 0 0 0 0 0 0 0 0 0 0 0 0 0 0 0 0 0 0 0 0 0 0 0 0 0 0 0 0 0 0 0 0 0 0 0 0 0 0 0 0 0 0 0 0 0 0 0 0 0 0 0 0 0 0 0 0 0 0 0 0 0 0 0 0 0 0 0 0 0 0 0 0 0 0 0 0 0 0 0 0 0 0 0 0 0 0 0 0 0 0 0 0 0 0 0 0 0 0 0 0 0 0 0 0 0 0 0 0 0 0 0 0 0 0 0 0 0 0 0 0 0 0 0 0 0 0 0 0 0 0 0 0 0 0 0 0 0 0 0 0 0 0 0 0 0 0 0 0 0 0 0 0 0 0 0 0 0 0 0 0 0 0 0 0 0 0 0 0 0 0 0 0 0 0 0 0 0 0 0 0 0 0 0 0 0 0 0 0 0 0 0 0 0 0 0 0 0 0 0 0 0 0 0 0 0 0 0 0 0 0 0 0 0 0 0 0 0 0 0 0 0 0 0 0 0 0 0 0 0 0 0 0 0 0 0 0 0 0 0 0 0 0 0 0 0 0 0 0 0 0 0 0 0 0 0 0 0 0 0 0 0 0 0 0 0 0 0 0 0 0 0 0 0 0 0 0 0 0 0 0 0 0 0 0 0 0 0 0 0 0 0 0 0 0 0 0 0 0 0 0 0 0 0 0 0 0 0 0 0 0 0 0 0 0 0 0 0 0 0 0 0 0 0 0 0 0 0 0 0 0 0 0 0 0 0 0 0 0 0 0 0 0 0 0 0 0 0 0 0 0 0 0 0 0 0 0 0 0 0 0 0 0 0 0 0 0 0 0 0 0 0 0 0 0 0 0 0 0 0 0 0 0 0 0 0 0 0 0 0 0 0 0 0 0 0 0 0 0 0 0 0 0 0 0 0 0 0 0 0 0 0 0 0 0 0 0 0 0 0 0 0 0 0 0 0 0 0 0 0 0 0 0 0 0 0 0 0 0 0 0 0 0 0 0 0 0 0 0 0 0 0 0 0 0 0 0 0 0 0 0 0 0 0 0 0 0 0 0 0 0 0 0 0 0 0 0 0 0 0 0 0 0 0 0 0 0 0 0 0 0 0 0 0 0 0 0 0 0 0 0 0 0 0 0 0 0 0 0 0 0 0 0 0 0 0 0 0 0 0 0 0 0 0 0 0 0 0 0 0 0 0 0 0 0 0 0 0 0 0 0 0 0 0 0 0 0 0 0 0 0 0 0 0 0 0 0 0 0 0 0 0 0 0 0 0 0 0 0 0 0 0 0 0 0 0 0 0 0 0 0 0 0 0 0 0 0 0 0 0 0 0 0 0 0 0 0 0 0 0 0 0 0 0 0 0 0 0 0 0 0 0 0 0 0 0 0 0 0 0 0 0 0 0 0 0 0 0 0 0 0 0 0 0 0 0 0 0 0 0 0 0 0 0 0 0 0 0 0 0 0 0 0 0 0 0 0 0 0 0 0 0 0 0 0 0 0 0 0 0 0 0 0 0 0 0 0 0 0 0 0 0 0 0 0 0 0 0 0 0 0 0 0 0 0 0 0 0 0 0 0 0 0 0 0 0 0 0 0 0 0 0 0 0 0 0 0 0 0 0 0 0 0 0 0 0 0 0 0 0 0 0 0 0 0 0 0 0 0 0 0 0 0 0 0 0 0 0 0 0 0 0 0 0 0 0 0 0 0 0 0 0 0 0 0 0 0 0 0 0 0 0 0 0 0 0 0 0 0 0 0 0 0 0 0 0 0 0 0 0 0 0 0 0 0 0 0 0 0 0 0 0 0 0 0 0 0 0 0 0 0 0 0 0 0 0 0 0 0 0 0 0 0 0 0 0 0 0 0 0 0 0 0 0 0 0 0 0 0 0 0 0 0 0 0 0 0 0 0 0 0 0 0 0 0 0 0 0 0 0 0 0 0 0 0 0 0 0 0 0 0 0 0 0 0 0 0 0 0 0 0 0 0 0 0 0 0 0 0 0 0 0 0 0 0 0 0 0 0 0 0 0 0 0 0 0 0 0 0 0 0 0 0 0 0 0 0 0 0 0 0 0 0 0 0 0 0 0 0 0 0 0 0 0 0 0 0 0 0 0 0 0 0 0 0 0 0 0 0 0 0 0 0 0 0 0 0 0 0 0 0 0 0 0 0 0 0 0 0 0 0 0 0 0 0 0 0 0 0 0 0 0 0 0 0 0 0 0 0 0 0 0 0 0 0 0 0 0 0 0 0 0 0 0 0 0 0 0 0 0 0 0 0 0 0 0 0 0 0 0 0 0 0 0 0 0 0 0 0 0 0 0 0 0 0 0 0 0 0 0 0 0 0 0 0 0 0 0 0 0 0 0 0 0 0 0 0 0 0 0 0 0 0 0 0 0 0 0 0 0 0 0 0 0 0 0 0 0 0 0 0 0 0 0 0 0 0 0 0 0 0 0 0 0 0 0 0 0 0 0 0 0 0 0 0 0 0 0 0 0 0 0 0 0 0 0 0 0 0 0 0 0 0 0 0 0 0 0 0 0 0 0 0 0 0 0 0 0 0 0 0 0 0 0 0 0 0 0 0 0 0 0 0 0 0 0 0 0 0 0 0 0 0 0 0 0 0 0 0 0 0 0 0 0 0 0 0 0 0 0 0 0 0 0 0 0 0 0 0 0 0 0 0 0 0 0 0 0 0 0 0 0 0 0 0 0 0 0 0 0 0 0 0 0 0 0 0 0 0 0 0 0 0 0 0 0 0 0 0 0 0 0 0 0 0 0 0 0 0 0 0 0 0 0 0 0 0 0 0 0 0 0 0 0 0 0 0 0 0 0 0 0 0 0 0 0 0 0 0 0 0 0 0 0 0 0 0 0 0 0 0 0 0 0 0 0 0 0 0 0 0 0 0 0 0 0 0 0 0 0 0 0 0 0 0 0 0 0 0 0 0 0 0 0 0 0 0 0 0 0 0 0 0 0 0 0 0 0 0 0 0 0 0 0 0 0 0 0 0 0 0 0 0 0 0 0 0 0 0 0 0 0 0 0 0 0 0 0 0 0 0 0 0 0 0 0 0 0 0 0 0 0 0 0 0 0 0 0 0 0 0 0 0 0 0 0 0 0 0 0 0 0 0 0 0 0 0 0 0 0 0 0 0 0 0 0 0 4 4 4 4 4 4 4 4 4 4 4 4 4 4 4 4 4 4 4 4 4 4 4 4 4 4 4 4 4 4 4 4 4 4 4 4 4 4 4 4 4 4 4 4 4 4 4 4 4 4 4 4 4 4 4 4 4 4 4 4 4 4 4 4 4 4 4 4 4 4 4 4 4 4 4 4 4 4 4 4 4 4 4 4 4 4 4 4 4 4 4 4 4 4 4 4 4 4 4 4 4 4 4 4 4 4 4 4 4 4 4 4 4 4 4 4 4 4 4 4 4 4 4 4 4 4 4 4 4 4 4 3 3 3 3 3 3 3 3 3 3 3 3 3 3 3 3 3 3 3 3 3 3 3 3 3 3 3 3 3 3 3 3 3 3 3 3 3 3 3 3 3 3 3 3 3 3 3 3 3 3 3 3 3 3 3 3 3 3 3 3 3 3 3 3 3 3 3 3 3 3 3 3 3 3 3 3 2 2 2 2 2 2 2 1 1 1 1 1 1 1 
</DataArray>
<DataArray type="Float64" Name="u" NumberOfComponents="1" format="ascii">
4.9764963512374122e-04 1.1634022219340959e-01 1.3886421148530972e-01 9.3595095299087341e-02 7.3976602425735338e-02 3.1779056225255300e-02 5.4995405935152161e-02 1.2566215299744037e-02 4.7055268917446588e-02 9.0700573330882606e-02 4.4533825088122994e-02 3.8938214785190467e-02 5.4521477867101570e-02 2.2989391677759090e-02 6.8621361927365468e-03 1.0902270798583150e-01 2.8318774303370675e-01 2.8046571911658819e-01 3.2317296300104192e-01 3.4730920405226251e-01 3.6225017993001030e-01 3.5675599772752553e-01 4.0772691111926967e-01 4.0028665422497822e-01 3.5064403685959555e-01 3.0343146273470845e-01 3.0211876063705667e-01 2.3582595345604634e-01 1.9010750759653108e-01 2.1543388369374453e-01 1.7084013028709660e-01 1.9400506018220362e-01 2.0443226783519719e-01 2.1624372589579022e-01 2.1251034088358622e-01 1.9242730305019046e-01 1.9470861962148045e-01 1.8185974426293311e-01 1.7249918834003880e-01 1.4994119710388418e-01 1.3133531762337369e-01 1.3898766494777498e-01 1.5687019328930796e-01 1.6854529780381533e-01 1.5307936107847880e-01 1.1145299603109539e-01 1.2936171694966300e-01 1.5343997161885065e-01 1.1411055811318294e-01 9.7755134916195086e-02 2.3981069769260527e-01 2.4801175781959675e-01 2.4541324152882457e-01 2.3157838623421650e-01 2.4728309224894637e-01 2.3686303484914584e-01 2.5170869310397814e-01 2.9125869914032287e-01 2.5209736571802221e-01 1.9704370638797514e-01 2.0200561265327238e-01 2.1864206059245589e-01 2.1392771632545071e-01 1.4475560400057891e-01 1.5825795824383249e-01 1.6259235962624674e-01 1.8464133524795923e-01 1.7385147599722470e-01 2.2004855762629072e-01 2.1964694315900687e-01 1.9315266634162875e-01 1.3880041748554767e-01 1.0517611559027096e-01 1.6821594395527306e-01 3.5273632635984167e-02 3.7549616132089375e-02 6.8929211789162073e-02 2.7903478016198077e-03 -4.0403604495927135e-03 9.9179039769068476e-03 -3.2482637934226483e-03 1.0187273162185253e-02 1.1767938622686162e-02 1.4856456752567374e-02 8.7163761782595023e-02 1.9214022868548501e-02 8.4248989418846898e-02 1.4688715131236005e-03 4.0215612143364596e-02 2.3132732777800608e-01 2.3060923988646453e-01 2.4954764858389802e-01 2.4140700323453257e-01 2.3791320079657069e-01 2.2868114275224424e-01 2.4781729268193825e-01 2.6006296204786233e-01 1.3099421834055061e-01 1.6922761065637609e-01 1.6251970805178328e-01 1.8594143122341891e-01 1.5111457382557847e-01 1.2770250864540292e-01 1.3328207486208304e-01 1.8431973299749085e-01 1.6514292105217321e-01 1.7258598127813524e-01 1.4621507849190157e-01 1.7367435787048163e-01 1.9329699047333027e-01 2.0873651761051679e-01 2.0283152716656522e-01 1.5979308267086775e-01 1.6962196684246050e-01 1.6040326187814713e-01 1.8189318056234435e-01 1.5302535526812522e-01 1.5208614962852807e-01 1.9594618958876298e-01 1.2177628384658278e-01 1.0730718563454994e-01 1.7489654895211912e-01 9.8959952105165880e-02 5.2789137300014215e-02 7.1482488514033063e-02 3.8691510892370093e-02 4.0463691344281558e-02 3.5088091673525492e-03 -1.3364082501076276e-03 4.6581210450292454e-01 5.1606440833486800e-01 4.0580820550098212e-01 5.2747857877943161e-01 1.6215827643374467e-01 2.1535161210638809e-01 2.4401027587886825e-01 3.3243365956926763e-01 2.0316547546847638e-01 2.6556060112530899e-01 2.7873582873927161e-01 2.5757385051545612e-01 2.7480197415244434e-01 2.6997556268123379e-01 2.2233939334388336e-01 1.5459764744997956e-01 1.4789868195178771e-01 1.1272196234338078e-01 3.4289855529594693e-01 3.4709107517157745e-01 3.9599280547930010e-01 2.9212242981264519e-01 2.1082235463296822e-01 7.3449440330953630e-01 4.4519490161134545e-01 7.4643059105025344e-01 4.8537567001582482e-01 8.4668801929436366e-01 9.4499042035428726e-01 6.4415763375617807e-01 8.9974403254702717e-01 5.2412024457275297e-01 5.2125159755655370e-01 5.0799158759233198e-01 6.0842062506428074e-01 4.7801640281581903e-01 4.4645393032710917e-01 6.2986656350864823e-01 6.4086877231231787e-01 8.3446783121749646e-01 9.4591451971997231e-01 8.2310452400451850e-01 4.1085821154823265e-01 4.2023281744420748e-01 4.6340750778416129e-01 7.4055404744170650e-01 2.7727495754858633e-01 2.7071182367425989e-01 2.4635502131750053e-01 2.4509153405940759e-01 3.3218697006390097e-01 2.9775196500132972e-01 3.8662075526897177e-01 4.4351557149148985e-01 4.8608230884923798e-01 4.9527024014660781e-01 3.3839814161191417e-01 1.1638751362918898e+00 1.1760717801409462e+00 9.8834316499399266e-01 3.7046153745365895e-01 3.0583310688427590e-01 3.3424124680700174e-01 2.1528013813949062e-01 5.7798036766192640e-01 4.9500712192040547e-01 5.8833172841331549e-01 1.4316988099453247e+00 1.3793632268233389e+00 1.2411949507584703e+00 1.1180457615231310e+00 1.5481258985792974e+00 2.2917316902164958e-01 2.6521103717419581e-01 2.9235664769990982e-01 2.1772828862101601e-01 2.6199225612747001e-01 2.2599462695727629e-01 2.5302463051766405e-01 2.6139035677886091e-01 1.2681243668506204e-01 6.1466407929132147e-02 1.2104347571119296e-01 9.5331078641676906e-02 5.5670458342548537e-02 2.3220091972538038e-02 -3.6264024474644244e-03 1.2591602865174439e-02 8.9274896558844102e-02 3.9843338245995535e-02 2.6165339453170618e-02 8.9834065624042947e-02 1.4841180355817524e-01 2.2431182846049408e-01 3.1903344842229486e-01 6.1598618481380474e-01 2.5264865952510296e-01 3.3022296446986066e-01 2.9073157223260016e-01 6.0809519056024408e-01 6.9262046045564030e-01 4.3318474649005551e-01 2.2968545537064838e-01 6.3649974009957966e-01 6.5192560600768179e-01 5.5056228726061607e-01 1.2333753067722258e-02 3.8675677324649507e-02 1.0287489703825591e-01 9.9404240092969165e-02 2.3551907048168532e-02 1.8542113066899818e-01 1.7904572237558114e-01 2.5273944876524368e-01 5.1039649516905580e-02 4.7735810888721392e-02 1.6775621315606865e-01 1.1987513896125401e-01 1.6275739043605925e-01 2.0858403853942686e+00 2.2413766435687572e+00 2.3043271988013894e+00 2.2288966690124230e+00 2.4374292570995690e+00 2.4053039924617963e+00 2.2345661991950769e+00 1.0330549135418429e-01 3.5954813585239809e-01 3.3068519362216786e-01 3.4087900849738861e-01 3.0162058134889075e-01 3.3702486380190255e-01 2.8542119071458438e-01 4.3278761146919648e-01 4.0357058416964797e-01 4.1315080693961054e-01 4.2619144475998483e-01 4.5186338681815286e-01 4.3368079738616827e-01 6.6908538654107219e-01 1.0973185044969207e+00 4.4992718307637841e-01 4.7854089231507058e-01 7.5593868937629005e-01 6.8005639781505178e-01 7.7986663976103010e-01 2.7819955041373418e-01 5.1098248754454811e-01 2.6710187965493104e-01 2.5547455170825556e-01 3.3728086226866183e-01 2.5715109883310427e-01 2.7916000365021321e-01 3.3728287816404101e-01 3.0071174387974720e-01 2.4293597427231883e-01 3.6181235571268022e-01 3.2522868821110806e-01 4.3390388998223284e-01 3.7072599360384384e-01 3.4859245750979195e-01 3.2670604341658721e-01 1.3093327732784434e+00 1.0064009361891784e+00 7.3835873323109591e-01 5.6539788404554048e-01 2.8945528243771990e-01 3.8703886632654610e-01 3.2628018788398916e-01 4.6061510413996770e-01 7.7755599239522621e-01 5.7554489647540752e-01 5.7884233046745726e-01 8.5215073871593794e-01 7.7118434039079031e-01 3.9976725284668863e-01 4.4949089135850939e-01 5.2993685638829335e-01 8.7579854465069085e-01 5.3649406382343012e-01 4.2730083467109548e-01 4.8049593335124263e-01 3.9880952217476651e-01 4.8026772947869872e-01 4.3955152962336580e-01 5.1287565021828274e-01 6.6028857901431814e-01 7.0507846433169941e-01 8.2579763320092825e-01 6.7179191563914153e-01 5.7429780289268317e-01 5.9338361830794495e-01 4.9645844485126756e-01 5.3347159309867276e-01 4.9523566019423537e-01 4.5866778639761718e-01 7.8917409440018038e-01 5.6451693937858927e-01 5.7442737024993884e-01 5.8023216569547376e-01 5.2019550256381542e-01 5.0652133612785077e-01 4.8021175700005081e-01 4.9542844478496229e-01 4.6276782657004512e-01 4.7342655351915908e-01 4.3406976055970403e-01 4.8961902615698583e-01 4.3929864950090314e-01 6.6225870401302589e-01 5.7986148462626597e-01 6.0136252307179849e-01 6.4479119804513785e-01 1.4157165824146523e-01 2.9759439247604641e-01 1.6729127753745604e-01 2.2544317712352879e-01 2.1563304270469033e-01 3.4726610510431571e-01 3.1345445217217738e-01 2.8291889263374914e-01 2.9819395824436418e-01 3.0077136132413262e-01 3.8559940279346128e-01 1.7125768895948204e-02 6.3649457609615143e-02 1.0345945808181148e-01 1.2515974400352056e-01 7.1560505090508125e-02 1.9577761368583338e-01 1.8651152765486895e-01 1.7525924864291212e-01 2.1934555898874350e-01 2.5302679477242412e-01 2.3025937183264769e-01 2.4997130951752217e-01 2.5787859051339956e-01 2.6432415576322471e-01 2.4489422300474670e-01 2.4257935977496536e-01 2.4352588686019744e-01 2.4929625145120005e-01 2.5009125985417535e-01 2.5730173732600237e-01 2.5467664140472679e-01 2.4301275054017629e-01 2.7677266557772606e-01 3.1553116948989607e-01 2.7916031290498927e-01 3.1253045593676737e-01 2.9030137158846059e-01 3.0170205108829129e-01 3.1722228669571501e-01 3.4809248553815053e-01 3.0771699728772806e-01 6.3714101267517553e-01 7.6918337537033321e-01 8.7173163278167221e-01 8.7420255058085883e-01 1.2207858492671027e+00 1.0994495651196674e+00 1.2196922889585053e+00 1.7444440413539832e+00 9.4545955408153004e-01 9.8434056516190971e-01 1.2026014691638647e+00 8.2278944191312986e-01 7.1468347175184921e-01 8.2585568964118150e-01 7.2099397238097174e-01 6.8222702536163671e-01 4.6403738798849214e-01 4.4348672815752999e-01 5.3400456625456594e-01 5.9931966917804647e-01 4.6398112752105758e-01 1.0935427613495152e+00 1.0065619795879570e+00 1.8094246391530957e+00 1.0050907232004225e+00 1.2984947378670393e+00 1.0809391009273024e+00 1.3391683449621099e+00 1.0662406842621852e+00 1.3117980678228209e+00 1.0210591683614383e+00 1.3430529882604743e+00 2.8774783012476979e-01 2.5542671202294931e-01 8.9424824259704327e-01 1.1275584057083221e+00 7.8446943944136605e-01 5.3478787616577139e-01 7.4377117499230838e-01 1.3903703492274673e+00 1.1193105220297468e+00 1.0790729166149640e+00 1.7381368610595720e+00 1.7001407407162292e+00 1.4635745867427534e+00 1.3147570058230045e+00 1.5548369788698835e+00 1.5056174201924399e+00 8.8864276773463335e-01 1.0310288533613869e+00 1.4362023330013041e+00 1.5957384293916363e+00 1.2792894278231133e+00 8.8192546003343519e-01 1.0743657386189409e+00 1.1648725210261059e+00 6.7958346300148020e-01 9.1337399746885772e-01 1.0243815067974620e+00 1.0611120377230181e+00 8.1699285689070145e-01 7.4746144628032085e-01 6.8655616969709654e-01 8.0609970635592554e-01 1.1032092190714269e+00 7.1113507857496394e-01 8.8846424067112872e-01 7.1059739413250034e-01 8.3446926517582654e-01 6.3885759356145611e-01 9.8032145211839739e-01 1.0580942737193126e+00 1.3180960826082211e+00 1.6598796845573989e+00 1.1804965427617833e+00 4.1929019441058524e-01 4.1669626910940816e-01 4.1405123151359091e-01 4.5202419743788758e-01 3.3990822125034104e-01 3.0327805270138020e-01 5.0792580365047391e-01 7.6389988585645796e-01 6.2972863567491233e-01 5.7071026402873926e-01 5.7326880993093909e-01 5.8093367350599556e-01 6.7123290110865641e-01 5.4170222002355883e-01 5.2872710903319142e-01 4.2924219839188787e-01 4.3040187279045283e-01 4.0954643753627051e-01 3.9595723177713460e-01 3.8775673649433368e-01 4.5272063677651753e-01 1.7200171567618761e+00 1.7441370257960378e+00 1.5473742026869406e+00 1.3030993456314852e+00 1.4542649222929513e+00 2.0246681514752258e+00 1.6188590906560090e+00 9.1309384093013968e-01 9.6353118714695019e-01 7.9109554553903805e-01 2.9876377468205073e-01 2.7670782091570995e-01 2.8669055985757980e-01 3.7094216044505590e-01 3.3869909615576577e-01 3.6897432929467600e-01 3.3562572833346110e-01 3.5094958896797357e-01 5.2663961183679575e-01 3.5241950045245413e-01 4.7571508145508257e-01 4.0990898468153780e-01 3.9374856113015577e-01 3.8867854043269889e-01 1.3783226771629100e+00 1.1390902883465204e+00 1.3041075494201677e+00 1.1014630356360624e+00 1.4402614684843660e+00 3.5929706387936267e-01 4.0278737929117941e-01 3.9077297983489501e-01 3.7522102579142758e-01 3.3145647665418571e-01 3.6844310056801999e-01 3.1236392756815134e-01 3.7201687856626420e-01 3.2183880706873591e-01 4.0958340476630695e-01 3.6770596560764812e-01 4.0097288286426219e-01 3.4457320049931162e-01 4.0801975484761099e-01 1.2871685377762496e-01 2.1855303068840887e-01 2.4347239632934092e-01 2.4432428215800722e-01 2.3705662172547309e-01 2.2666185702686525e-01 2.2634868699507948e-01 2.1076564984642346e-01 2.6109724665100270e-01 2.3537983497143775e-01 2.3685611749154734e-01 2.2958420288905876e-01 1.9606816658303206e-01 2.3971566975919451e-01 2.1831313956041026e-01 2.3281922946112646e-01 2.1205979990124274e-01 2.3193030177926999e-01 3.1211535414565661e-01 3.0037636692483816e-01 2.7999948037578581e-01 2.5586414993227552e-01 2.8619760678741146e-01 2.5298307869552839e-01 3.1456769256318473e-01 4.6594893085065786e-02 2.3274769145385812e-01 1.4323936069128684e-01 5.9320535654309572e-02 7.8081946774018418e-02 4.1229206635510340e-01 4.3079436178917541e-01 3.9575477548966242e-01 2.1834782571428137e+00 2.0393967342058916e+00 2.3713749706162623e+00 2.2879674683550819e+00 9.3710503681588328e-02 5.7778698778877025e-01 1.3202837686268121e-01 3.1219752295702785e-01 3.6170669640803921e-01 4.2366614850191242e-01 6.1004217045808407e-01 2.4040606365544939e+00 2.2327342541915707e-01 3.7426141462317897e-01 1.9565659716606648e-01 4.3304696527412723e-01 1.2100360731755090e-01 5.0612664554946141e-01 6.9984969314090284e-01 1.1316924827127359e-01 6.7402222445551807e-01 1.0508845174352491e-01 1.3395216842418165e+00 1.2170326812573367e+00 1.1439895682021828e+00 7.5220641548252420e-01 9.8725952444030696e-01 2.3728482081783353e+00 2.3122762149749365e-01 8.0930203543224677e-01 1.1126221240976992e+00 9.3680703816866573e-01 1.1781400506946593e+00 1.3729788625102981e+00 4.1717294805511546e-01 7.0146736333432255e-02 2.4704861071299000e-01 1.6371119757442096e-01 4.8968287339444649e-01 8.7495502454224050e-01 3.4520828900744838e-01 2.6663057030101811e-01 5.0442865161817985e-01 7.6420328569081297e-01 8.4066771639493543e-01 1.1957275701137929e-01 6.9517284832582349e-01 2.3219469826551253e-01 4.4237965507102167e-01 4.4407217395249771e-01 9.3611327123461166e-02 1.8119745748522604e+00 1.9012204541174227e+00 1.6671981892291243e+00 4.2614444921646433e-01 6.5963901169513