<?xml version="1.0"?>
<VTKFile type="UnstructuredGrid"  byte_order="LittleEndian">
<UnstructuredGrid>
<Piece NumberOfPoints="785" NumberOfCells=" 1570">
<Points>
<DataArray type="Float32" NumberOfComponents="3" format="ascii">
22.875587 -1.872935 0.000000 0.039861 -3.630931 0.000000 33.223217 -3.630931 0.000000 0.039861 4.494988 0.000000 33.223217 4.494988 0.000000 22.872904 -1.819145 0.000000 22.864876 -1.765890 0.000000 22.851587 -1.713699 0.000000 22.833166 -1.663090 0.000000 22.809799 -1.614567 0.000000 22.781717 -1.568612 0.000000 22.749197 -1.525681 0.000000 22.712566 -1.486201 0.000000 22.672186 -1.450565 0.000000 22.628456 -1.419126 0.000000 22.581816 -1.392198 0.000000 22.532724 -1.370047 0.000000 22.481672 -1.352895 0.000000 22.429167 -1.340911 0.000000 22.375729 -1.334214 0.000000 22.321888 -1.332871 0.000000 22.268181 -1.336896 0.000000 22.215143 -1.346248 0.000000 22.163300 -1.360834 0.000000 22.113167 -1.380511 0.000000 22.065241 -1.405081 0.000000 22.019999 -1.434300 0.000000 21.977892 -1.467879 0.000000 21.939339 -1.505484 0.000000 21.904720 -1.546741 0.000000 21.874382 -1.591239 0.000000 21.848625 -1.638537 0.000000 21.827705 -1.688165 0.000000 21.811831 -1.739629 0.000000 21.801159 -1.792418 0.000000 21.795795 -1.846007 0.000000 21.795795 -1.899863 0.000000 21.801159 -1.953452 0.000000 21.811831 -2.006241 0.000000 21.827705 -2.057705 0.000000 21.848625 -2.107333 0.000000 21.874382 -2.154631 0.000000 21.904720 -2.199129 0.000000 21.939339 -2.240386 0.000000 21.977892 -2.277991 0.000000 22.019999 -2.311569 0.000000 22.065241 -2.340789 0.000000 22.113167 -2.365359 0.000000 22.163300 -2.385035 0.000000 22.215143 -2.399622 0.000000 22.268181 -2.408974 0.000000 22.321888 -2.412999 0.000000 22.375729 -2.411656 0.000000 22.429167 -2.404959 0.000000 22.481672 -2.392975 0.000000 22.532724 -2.375822 0.000000 22.581816 -2.353672 0.000000 22.628456 -2.326744 0.000000 22.672186 -2.295305 0.000000 22.712566 -2.259669 0.000000 22.749197 -2.220189 0.000000 22.781717 -2.177258 0.000000 22.809799 -2.131303 0.000000 22.833166 -2.082780 0.000000 22.851587 -2.032171 0.000000 22.864876 -1.979980 0.000000 22.872904 -1.926725 0.000000 1.015842 -3.630931 0.000000 1.991823 -3.630931 0.000000 2.967804 -3.630931 0.000000 3.943785 -3.630931 0.000000 4.919766 -3.630931 0.000000 5.895747 -3.630931 0.000000 6.871728 -3.630931 0.000000 7.847709 -3.630931 0.000000 8.823690 -3.630931 0.000000 9.799671 -3.630931 0.000000 10.775652 -3.630931 0.000000 11.751633 -3.630931 0.000000 12.727614 -3.630931 0.000000 13.703595 -3.630931 0.000000 14.679576 -3.630931 0.000000 15.655558 -3.630931 0.000000 16.631538 -3.630931 0.000000 17.607519 -3.630931 0.000000 18.583500 -3.630931 0.000000 19.559481 -3.630931 0.000000 20.535463 -3.630931 0.000000 21.511444 -3.630931 0.000000 22.487425 -3.630931 0.000000 23.463406 -3.630931 0.000000 24.439386 -3.630931 0.000000 25.415367 -3.630931 0.000000 26.391348 -3.630931 0.000000 27.367331 -3.630931 0.000000 28.343311 -3.630931 0.000000 29.319292 -3.630931 0.000000 30.295273 -3.630931 0.000000 31.271254 -3.630931 0.000000 32.247234 -3.630931 0.000000 0.039861 3.592108 0.000000 0.039861 2.689229 0.000000 0.039861 1.786349 0.000000 0.039861 0.883469 0.000000 0.039861 -0.019411 0.000000 0.039861 -0.922291 0.000000 0.039861 -1.825171 0.000000 0.039861 -2.728051 0.000000 33.223217 -2.728051 0.000000 33.223217 -1.825171 0.000000 33.223217 -0.922291 0.000000 33.223217 -0.019411 0.000000 33.223217 0.883469 0.000000 33.223217 1.786349 0.000000 33.223217 2.689229 0.000000 33.223217 3.592108 0.000000 32.247234 4.494988 0.000000 31.271254 4.494988 0.000000 30.295273 4.494988 0.000000 29.319292 4.494988 0.000000 28.343311 4.494988 0.000000 27.367331 4.494988 0.000000 26.391348 4.494988 0.000000 25.415367 4.494988 0.000000 24.439386 4.494988 0.000000 23.463406 4.494988 0.000000 22.487425 4.494988 0.000000 21.511444 4.494988 0.000000 20.535463 4.494988 0.000000 19.559481 4.494988 0.000000 18.583500 4.494988 0.000000 17.607519 4.494988 0.000000 16.631538 4.494988 0.000000 15.655558 4.494988 0.000000 14.679576 4.494988 0.000000 13.703595 4.494988 0.000000 12.727614 4.494988 0.000000 11.751633 4.494988 0.000000 10.775652 4.494988 0.000000 9.799671 4.494988 0.000000 8.823690 4.494988 0.000000 7.847709 4.494988 0.000000 6.871728 4.494988 0.000000 5.895747 4.494988 0.000000 4.919766 4.494988 0.000000 3.943785 4.494988 0.000000 2.967804 4.494988 0.000000 1.991823 4.494988 0.000000 1.015842 4.494988 0.000000 25.834185 3.658914 0.000000 19.071491 3.649764 0.000000 25.849880 -2.823930 0.000000 22.956989 3.571657 0.000000 0.832154 0.344819 0.000000 32.308182 0.548866 0.000000 19.124231 -2.826681 0.000000 5.285107 -2.688084 0.000000 8.335566 3.675188 0.000000 11.282644 -2.796750 0.000000 14.191586 -2.785707 0.000000 16.143150 3.601240 0.000000 13.214955 3.649616 0.000000 28.939478 3.725746 0.000000 28.755156 -2.813061 0.000000 4.431776 3.649764 0.000000 8.333689 -2.778078 0.000000 17.193928 -2.832547 0.000000 21.121874 3.727866 0.000000 6.382729 3.650681 0.000000 11.264147 3.650075 0.000000 3.429950 -2.804688 0.000000 30.678728 -2.886683 0.000000 30.795256 3.700145 0.000000 2.498375 3.668720 0.000000 0.778772 -1.389309 0.000000 23.922756 -2.977429 0.000000 0.775971 2.294154 0.000000 32.441299 -1.373731 0.000000 32.385059 2.177457 0.000000 20.988781 -2.764153 0.000000 21.826002 -2.156243 0.000000 21.890984 -2.275855 0.000000 23.145449 -2.923233 0.000000 22.814785 -2.246039 0.000000 22.734545 -2.315227 0.000000 22.618490 -2.386082 0.000000 21.739645 -2.995390 0.000000 22.314901 -2.486605 0.000000 22.189104 -2.453106 0.000000 22.067924 -2.394579 0.000000 1.503832 -2.785707 0.000000 20.005856 -2.846946 0.000000 19.523355 -2.120722 0.000000 18.802635 -2.059552 0.000000 19.224236 -1.444820 0.000000 18.491995 -1.347527 0.000000 18.956865 -0.771760 0.000000 18.174030 -0.494517 0.000000 19.690918 -0.845703 0.000000 19.416824 -0.228621 0.000000 20.058701 -0.284087 0.000000 19.801344 0.287813 0.000000 20.395489 0.214371 0.000000 20.628889 -0.264870 0.000000 20.889244 0.137880 0.000000 21.067778 -0.294648 0.000000 21.378256 0.011326 0.000000 20.865904 -0.631659 0.000000 21.185373 0.482211 0.000000 21.620750 0.385598 0.000000 21.793571 0.014180 0.000000 22.017052 0.314274 0.000000 22.147821 -0.080053 0.000000 22.375832 0.233506 0.000000 22.493267 -0.096766 0.000000 22.717787 0.172695 0.000000 22.291550 -1.288373 0.000000 22.840530 -0.159846 0.000000 23.060015 0.108547 0.000000 23.197527 -0.249221 0.000000 23.450535 0.059297 0.000000 22.577938 -1.333570 0.000000 23.593626 -0.353771 0.000000 23.898800 0.012370 0.000000 22.409996 -1.283274 0.000000 22.943474 0.453395 0.000000 21.905359 0.711289 0.000000 20.173721 0.777262 0.000000 21.912653 -0.296862 0.000000 21.969114 -1.412236 0.000000 22.121288 -1.324848 0.000000 19.552071 0.881775 0.000000 24.055891 -0.455882 0.000000 24.409700 -0.064689 0.000000 24.242605 0.430178 0.000000 24.788040 0.378039 0.000000 24.583675 0.924345 0.000000 25.186039 0.865792 0.000000 25.413692 0.262935 0.000000 25.851410 0.783623 0.000000 26.102903 0.127057 0.000000 26.575396 0.700040 0.000000 24.572580 -0.692983 0.000000 26.849913 -0.016136 0.000000 27.358250 0.601397 0.000000 22.638050 -0.380715 0.000000 23.699005 -0.817286 0.000000 22.724815 -1.431654 0.000000 22.804232 -1.517773 0.000000 27.651619 -0.174268 0.000000 28.188324 0.485782 0.000000 19.976271 1.395085 0.000000 27.020540 1.338397 0.000000 19.295612 1.514600 0.000000 24.926804 1.464309 0.000000 24.210564 1.448574 0.000000 28.492737 -0.325733 0.000000 29.049318 0.356545 0.000000 29.364704 -0.477767 0.000000 21.206011 -0.644330 0.000000 21.054394 -0.927989 0.000000 21.756874 -1.820440 0.000000 21.794544 -1.644948 0.000000 21.852942 -1.543691 0.000000 21.755793 -1.936153 0.000000 21.357359 -0.920952 0.000000 21.203470 -1.178111 0.000000 20.905430 -1.193491 0.000000 21.069626 -1.419532 0.000000 21.456600 -1.167424 0.000000 21.586098 -1.001220 0.000000 27.116434 -0.750312 0.000000 29.932659 0.217492 0.000000 29.608553 1.054559 0.000000 24.627113 2.081764 0.000000 20.759514 -1.475618 0.000000 21.657972 -1.186775 0.000000 21.789909 -1.055480 0.000000 21.560192 -1.333437 0.000000 25.228849 2.121809 0.000000 18.858574 0.957961 0.000000 18.567934 1.622982 0.000000 18.091829 1.019113 0.000000 17.777229 1.750193 0.000000 17.272535 1.103118 0.000000 30.255610 -0.625847 0.000000 21.716043 -0.862143 0.000000 21.897654 -0.902794 0.000000 21.963739 -1.055466 0.000000 22.066336 -0.937755 0.000000 19.748959 2.057709 0.000000 20.438713 1.905946 0.000000 30.503782 0.920047 0.000000 20.959093 -1.739022 0.000000 23.957809 2.180448 0.000000 23.516829 1.610328 0.000000 22.125977 -1.081804 0.000000 22.222656 -0.963325 0.000000 22.173969 -0.812404 0.000000 22.333658 -0.860203 0.000000 22.368687 -1.019935 0.000000 22.483103 -0.909940 0.000000 22.517891 -1.075422 0.000000 22.625422 -0.958165 0.000000 22.657209 -1.096724 0.000000 22.777430 -0.993077 0.000000 22.815226 -1.154732 0.000000 22.945677 -1.033483 0.000000 22.969782 -1.220548 0.000000 22.898470 -0.848552 0.000000 21.286335 -1.732004 0.000000 16.945404 1.893700 0.000000 16.407764 1.203149 0.000000 16.761877 0.388442 0.000000 15.870787 0.468471 0.000000 15.498240 1.310390 0.000000 14.938629 0.583487 0.000000 15.321921 -0.283860 0.000000 14.376147 -0.166894 0.000000 14.001526 0.703747 0.000000 13.430217 -0.055216 0.000000 13.055325 0.823586 0.000000 12.477156 0.055586 0.000000 12.098785 0.941677 0.000000 11.518741 0.168938 0.000000 11.137037 1.049076 0.000000 10.555928 0.281669 0.000000 10.175039 1.176949 0.000000 9.595993 0.419560 0.000000 9.974616 -0.492175 0.000000 9.008325 -0.375741 0.000000 8.636092 0.555937 0.000000 8.043038 -0.250789 0.000000 7.657542 0.632416 0.000000 7.074328 -0.139485 0.000000 6.702826 0.803408 0.000000 6.108125 -0.019088 0.000000 5.734676 0.910390 0.000000 5.142888 0.097845 0.000000 4.761241 0.986203 0.000000 4.181513 0.211510 0.000000 3.801600 1.091722 0.000000 12.861099 -0.805904 0.000000 3.228361 0.
[...]
<CellData Scalars="Label">
<DataArray type="Int32" Name="Label" format="ascii">
1 1 1 1 1 1 1 1 1 1 1 1 1 1 1 1 1 1 1 1 1 1 1 1 1 1 1 1 1 1 1 1 1 1 1 1 1 1 1 1 1 1 1 1 1 1 1 1 1 1 1 1 1 1 1 1 1 1 1 1 1 1 1 1 1 1 1 1 1 1 1 1 1 1 1 1 1 1 1 1 1 1 1 1 1 1 1 1 1 1 1 1 1 1 1 1 1 1 1 1 1 1 1 1 1 1 1 1 1 1 1 1 1 1 1 1 1 1 1 1 1 1 1 1 1 1 1 1 1 1 1 1 1 1 1 1 1 1 1 1 1 1 1 1 1 1 1 1 1 1 1 1 1 1 1 1 1 1 1 1 1 1 1 1 1 1 1 1 1 1 1 1 1 1 1 1 1 1 1 1 1 1 1 1 1 1 1 1 1 1 1 1 1 1 1 1 1 1 1 1 1 1 1 1 1 1 1 1 1 1 1 1 1 1 1 1 1 1 1 1 1 1 1 1 1 1 1 1 1 1 1 1 1 1 1 1 1 1 1 1 1 1 1 1 1 1 1 1 1 1 1 1 1 1 1 1 1 1 1 1 1 1 1 1 1 1 1 1 1 1 1 1 1 1 1 1 1 1 1 1 1 1 1 1 1 1 1 1 1 1 1 1 1 1 1 1 1 1 1 1 1 1 1 1 1 1 1 1 1 1 1 1 1 1 1 1 1 1 1 1 1 1 1 1 1 1 1 1 1 1 1 1 1 1 1 1 1 1 1 1 1 1 1 1 1 1 1 1 1 1 1 1 1 1 1 1 1 1 1 1 1 1 1 1 1 1 1 1 1 1 1 1 1 1 1 1 1 1 1 1 1 1 1 1 1 1 1 1 1 1 1 1 1 1 1 1 1 1 1 1 1 1 1 1 1 1 1 1 1 1 1 1 1 1 1 1 1 1 1 1 1 1 1 1 1 1 1 1 1 1 1 1 1 1 1 1 1 1 1 1 1 1 1 1 1 1 1 1 1 1 1 1 1 1 1 1 1 1 1 1 1 1 1 1 1 1 1 1 1 1 1 1 1 1 1 1 1 1 1 1 1 1 1 1 1 1 1 1 1 1 1 1 1 1 1 1 1 1 1 1 1 1 1 1 1 1 1 1 1 1 1 1 1 1 1 1 1 1 1 1 1 1 1 1 1 1 1 1 1 1 1 1 1 1 1 1 1 1 1 1 1 1 1 1 1 1 1 1 1 1 1 1 1 1 1 1 1 1 1 1 1 1 1 1 1 1 1 1 1 1 1 1 1 1 1 1 1 1 1 1 1 1 1 1 1 1 1 1 1 1 1 1 1 1 1 1 1 1 1 1 1 1 1 1 1 1 1 1 1 1 1 1 1 1 1 1 1 1 1 1 1 1 1 1 1 1 1 1 1 1 1 1 1 1 1 1 1 1 1 1 1 1 1 1 1 1 1 1 1 1 1 1 1 1 1 1 1 1 1 1 1 1 1 1 1 1 1 1 1 1 1 1 1 1 1 1 1 1 1 1 1 1 1 1 1 1 1 1 1 1 1 1 1 1 1 1 1 1 1 1 1 1 1 1 1 1 1 1 1 1 1 1 1 1 1 1 1 1 1 1 1 1 1 1 1 1 1 1 1 1 1 1 1 1 1 1 1 1 1 1 1 1 1 1 1 1 1 1 1 1 1 1 1 1 1 1 1 1 1 1 1 1 1 1 1 1 1 1 1 1 1 1 1 1 1 1 1 1 1 1 1 1 1 1 1 1 1 1 1 1 1 1 1 1 1 1 1 1 1 1 1 1 1 1 1 1 1 1 1 1 1 1 1 1 1 1 1 1 1 1 1 1 1 1 1 1 1 1 1 1 1 1 1 1 1 1 1 1 1 1 1 1 1 1 1 1 1 1 1 1 1 1 1 1 1 1 1 1 1 1 1 1 1 1 1 1 1 1 1 1 1 1 1 1 1 1 1 1 1 1 1 1 1 1 1 1 1 1 1 1 1 1 1 1 1 1 1 1 1 1 1 1 1 1 1 1 1 1 1 1 1 1 1 1 1 1 1 1 1 1 1 1 1 1 1 1 1 1 1 1 1 1 1 1 1 1 1 1 1 1 1 1 1 1 1 1 1 1 1 1 1 1 1 1 1 1 1 1 1 1 1 1 1 1 1 1 1 1 1 1 1 1 1 1 1 1 1 1 1 1 1 1 1 1 1 1 1 1 1 1 1 1 1 1 1 1 1 1 1 1 1 1 1 1 1 1 1 1 1 1 1 1 1 1 1 1 1 1 1 1 1 1 1 1 1 1 1 1 1 1 1 1 1 1 1 1 1 1 1 1 1 1 1 1 1 1 1 1 1 1 1 1 1 1 1 1 1 1 1 1 1 1 1 1 1 1 1 1 1 1 1 1 1 1 1 1 1 1 1 1 1 1 1 1 1 1 1 1 1 1 1 1 1 1 1 1 1 1 1 1 1 1 1 1 1 1 1 1 1 1 1 1 1 1 1 1 1 1 1 1 1 1 1 1 1 1 1 1 1 1 1 1 1 1 1 1 1 1 1 1 1 1 1 1 1 1 1 1 1 1 1 1 1 1 1 1 1 1 1 1 1 1 1 1 1 1 1 1 1 1 1 1 1 1 1 1 1 1 1 1 1 1 1 1 1 1 1 1 1 1 1 1 1 1 1 1 1 1 1 1 1 1 1 1 1 1 1 1 1 1 1 1 1 1 1 1 1 1 1 1 1 1 1 1 1 1 1 1 1 1 1 1 1 1 1 1 1 1 1 1 1 1 1 1 1 1 1 1 1 1 1 1 1 1 1 1 1 1 1 1 1 1 1 1 1 1 1 1 1 1 1 1 1 1 1 1 1 1 1 1 1 1 1 1 1 1 1 1 1 1 1 1 1 1 1 1 1 1 1 1 1 1 1 1 1 1 1 1 1 1 1 1 1 1 1 1 1 1 1 1 1 1 1 1 1 1 1 1 1 1 1 1 1 1 1 1 1 1 1 1 1 1 1 1 1 1 1 1 1 1 1 1 1 1 1 1 1 1 1 1 1 1 1 1 1 1 1 1 1 1 1 1 1 1 1 1 1 1 1 1 1 1 1 1 1 1 1 1 1 1 1 1 1 1 1 1 1 1 1 1 1 1 1 1 1 1 1 1 1 1 1 1 1 1 1 1 1 1 1 1 1 5 5 5 5 5 5 5 5 5 5 5 5 5 5 5 5 5 5 5 5 5 5 5 5 5 5 5 5 5 5 5 5 5 5 5 5 5 5 5 5 5 5 5 5 5 5 5 5 5 5 5 5 5 5 5 5 5 5 5 5 5 5 5 4 4 4 4 4 4 4 4 4 4 4 4 4 4 4 4 4 4 4 4 4 4 4 4 4 4 4 4 4 4 4 4 4 4 2 2 2 2 2 2 2 2 2 3 3 3 3 3 3 3 3 3 4 4 4 4 4 4 4 4 4 4 4 4 4 4 4 4 4 4 4 4 4 4 4 4 4 4 4 4 4 4 4 4 4 4 
</DataArray>
<DataArray type="Float64" Name="u" NumberOfComponents="1" format="ascii">
5.9308352758891916e-02 1.0111011007638426e+00 7.2974031587403243e-01 1.0033004898932962e+00 7.4964723435435435e-02 1.5502359547145367e-01 5.8748061731399674e-02 1.2847204958714391e+00 2.4753335525847747e-01 1.0352706396512752e+00 1.0452950208949396e+00 4.7637736173969311e-02 7.5000974869643591e-02 1.7522744159339396e-02 1.2984209344190372e+00 9.5300227290857031e-01 1.2558660719370973e+00 1.6469879977341397e+00 1.0084074750275640e+00 9.9457305861104306e-01 9.9342691558176188e-01 9.0820488161914037e-01 7.1074369460259956e-01 8.2551933241078090e-01 2.8319894279523877e-01 3.3218672767238849e-01 2.2900807278134244e-01 1.3144155460613058e+00 6.2019588986637386e-01 3.6382690367907822e-01 3.8328198293937688e-01 6.4982364691853278e-01 2.7005309454952362e-02 3.2240377679524868e-01 1.2582821753916602e+00 7.2024215005176709e-02 8.8821070565292148e-01 2.1584046521145792e-01 1.7963612597409251e-01 1.5424828824183423e-01 1.8964577244575270e-02 8.6493930026482413e-01 3.7329947127724306e-01 4.2122434396269559e-01 8.3738899111941778e-01 2.4711175739403088e-01 1.0039490632992121e+00 2.4098734421007009e-01 3.7377011653088005e-01 1.1800103958386714e+00 3.9078172753014295e-01 6.9577878914761165e-02 4.6237468759415223e-01 6.1931750473381664e-01 6.0223061379299003e-01 1.2593365043793336e+00 1.3212674079535898e+00 2.9161719048319779e-01 3.7013799161348232e-01 1.2079983792099269e+00 4.0288695730258028e-01 6.1882241193803877e-01 9.3812624726966276e-01 2.3546884603777452e-01 9.1619907649328325e-01 2.1888600202057906e-01 7.7386094927808957e-01 1.5586283547940991e+00 1.3293948366344399e-01 2.0560769821089114e-01 3.3291084207992022e-01 3.4317138242956069e-01 2.1861558316436314e-01 4.7995764783092754e-01 7.0037639270596364e-01 3.7221560893315703e-01 4.7635287687383517e-02 4.4376210548514733e-01 2.5874425702424175e-01 2.0873472937644968e-01 9.3373684054824699e-02 2.1506799836183188e-01 1.0246628856966558e+00 1.8078224373579549e-01 1.0051219648934313e+00 9.9624682897665150e-03 1.4748529323966888e+00 1.5320931013889503e+00 5.1647347131191346e-01 1.0096227755899649e+00 9.2928093938952938e-01 1.5034987004078721e+00 9.9794042475673150e-01 1.3164607738488545e+00 7.3429353278533749e-01 1.5631655940981841e+00 4.8929215607315968e-01 9.9762919637191039e-01 3.2450308630275798e-01 1.3470290759377379e+00 1.3186736030727713e+00 1.4837364732987557e+00 9.0662587843801634e-01 8.2533673444541666e-01 1.2793038969283039e+00 7.9695366854191385e-01 8.1664887246754203e-01 3.7638625809333348e-01 9.2085516628935915e-01 4.3242984551285724e-01 1.6668912256738468e+00 7.8562423950501614e-01 5.8328100388035087e-01 1.0321824421268273e+00 8.1602307777538108e-01 6.4103829504751708e-01 1.9500707749838642e-01 7.8420947757501092e-01 1.3456848292959676e+00 9.1574668330941211e-01 1.0060063112887838e+00 5.6852686794833818e-01 1.0060119408408108e+00 1.3562721890097587e+00 5.2498358840491754e-01 1.0003027502867354e+00 9.8327256495190207e-01 1.5100894515427243e+00 1.5769981758078622e-01 2.9543234858810835e-01 6.1199572678023173e-01 1.3546321803749767e-01 4.6713017721229178e-01 2.3796338010019802e-01 1.0079716623959816e+00 8.2785493878526406e-01 1.3562880884528306e+00 9.9401372649373909e-01 2.8335344412467417e-01 8.2691285027777517e-01 4.1457194006776732e-01 9.9991499346141022e-01 6.7204442592226754e-01 2.9308710780039160e-01 6.9733976385144014e-01 9.3737051633958213e-01 6.4170068527294055e-01 1.2340988584603984e-02 1.3865792386174705e+00 2.2726908234521453e-01 5.2018988261557531e-01 4.3927693905996834e-01 3.3281394808792558e-01 1.0257741688772749e-01 2.1764727846760024e-01 8.7761691617800430e-01 9.9456619521496292e-01 1.4378806363802754e+00 1.1003228451907315e-01 2.8687100854207331e-01 8.1440418701349415e-01 4.9080767682440385e-01 1.1181620993423608e-01 1.3974332588192540e-01 9.9051699205517885e-01 1.6251801036691913e+00 1.5979006596043503e+00 4.9380181616751495e-01 9.9873444702878000e-01 3.7896451919987661e-01 3.4318220497059115e-01 9.9913737474460196e-01 1.0309563529271850e+00 9.7986869449291270e-01 9.9995778485760023e-01 9.5461772175742809e-01 1.4771340327547491e+00 1.0300749093273724e+00 1.0885642311559272e+00 1.0056510834104253e+00 5.6353586859360493e-03 4.8445714655862410e-01 7.3113599128226348e-01 1.8322942548447657e-01 9.7388104073732273e-01 6.4877539185690225e-02 1.7094460491057750e-01 3.9764734224340748e-01 1.0045697548323320e+00 8.6977495986484921e-01 9.9989972342083600e-01 1.0846106749816418e+00 9.1524561594619236e-01 1.5754133760101006e+00 9.0385214342914955e-01 3.9246744963848007e-01 1.4033371852662757e-01 3.4965950394232481e-01 8.1276298455579421e-01 6.0746336289899827e-01 9.6231223588307824e-01 9.9129425219293510e-01 1.0041003367003642e+00 2.3808596541839744e-01 2.4379566020954763e-01 3.4346994170481265e-01 2.3668599371266205e-01 6.0701411144445894e-01 1.3501102174790278e+00 5.7028770036319787e-01 2.0255333395476166e-01 9.6365714585013840e-01 6.9272142519631230e-01 1.4529540184300629e+00 6.6986790445376654e-01 2.7194940205997920e-01 9.8615324781052327e-01 3.5551983812214810e-01 6.1668359735890421e-01 1.4207995225246326e+00 7.1363654269447063e-01 2.4637359912434237e-01 9.8818381647625253e-01 9.7988428937207539e-01 9.7197950764151719e-01 1.3977289276137683e-01 5.4943486055644175e-01 2.0583261070938698e-02 1.0002140697934614e+00 7.9905252967433366e-02 1.4123061347046788e+00 1.2897456306438926e+00 5.3490712179826994e-01 5.3638745166876756e-01 1.8973676960406932e-01 1.0071495217030915e+00 4.1712661250489586e-01 8.1240245279511059e-01 2.6589901006014194e-01 8.3387833900291652e-01 1.6165388296607897e+00 9.1869324403794406e-01 8.1548205538045926e-01 9.5804429952053605e-01 9.9168911267885052e-01 9.9830435204711976e-01 1.4162088378441768e+00 1.0040330885807940e+00 3.7522092113721595e-01 1.3161095722011527e+00 1.1483886485064808e-01 2.5505390125216920e-01 1.2574963784181024e+00 6.0882850514457987e-01 6.3055632212175139e-01 7.1941197504563481e-01 1.0068819287169628e+00 3.3053034903645341e-02 1.0103153126854336e+00 1.0001712108350886e+00 6.5364227331582314e-01 1.5331197724673657e+00 7.8527664830477240e-01 1.6125396143309230e+00 9.6035887008881859e-01 1.4229974539613561e+00 1.3641477082715927e+00 1.0733943708375810e+00 1.6086523959962878e-01 1.4760449482374485e+00 1.8807800569678992e-01 1.0903130803782384e+00 4.7236551665447513e-01 1.1328285307332580e+00 1.6642924809563810e+00 7.6157572553918262e-01 1.6376365883749455e+00 4.6652077307147277e-01 1.0038785072036551e+00 1.4861517784434539e+00 7.7008293616777457e-01 2.7896907078877031e-01 7.6014370036690160e-01 7.5912485410249375e-01 6.7410197193895161e-01 1.8617960290929086e-01 4.9629606352093936e-01 1.4680238562557482e+00 1.0059429003650320e+00 1.5809558216523429e+00 1.0558148443749382e-01 1.2138080795542008e+00 1.6406412625892539e+00 7.2084767472955913e-01 1.5494206543373588e+00 9.6546820822231560e-01 1.2631889886079697e+00 8.7615126653776199e-01 1.0237779506859248e+00 5.2424637885137959e-01 1.1283604653416450e+00 6.8219437369736313e-01 9.5542849020544085e-01 1.4193257685501468e+00 9.6454967450032991e-01 1.3502528547050047e-01 1.9415220936272792e-01 9.7619846837513291e-01 7.2430979005166063e-01 8.7486779621197097e-01 6.3445945628189260e-01 7.6083164979695095e-01 5.2187392941378530e-01 1.0076875769735314e+00 9.1154031677541747e-01 1.4204698428962725e+00 1.0559031397311933e+00 1.0015743983322023e+00 1.4171726725233444e+00 1.3766188785684301e+00 9.8058661591277896e-01 1.6543673625828115e+00 9.9447612879639791e-01 9.2288648186544475e-01 9.1600514116071219e-01 1.1971523838258262e+00 2.5840839170554190e-02 3.7626070111253074e-01 1.4385007256651301e+00 1.1898607813768999e-01 1.0820013390970762e+00 5.7430333046386853e-02 1.0013388752503491e+00 3.8270073090726642e-01 7.7216091568283529e-01 1.3749294976451045e+00 1.0718051652720555e+00 2.9763506691870434e-01 2.7124823707515172e-01 8.1793468704740613e-01 1.0028509859043995e+00 1.4552896607294534e+00 4.5235116158688055e-01 1.0184718805467448e+00 3.2723816171846121e-01 6.7327319960801846e-01 6.6866083592852743e-01 9.7987218285110234e-01 4.9349516602829652e-01 1.9272404550779804e-01 2.5425080692656060e-01 9.5455904980342510e-01 1.1608017258756411e+00 1.1200191426503507e+00 5.5142474030815747e-01 1.1076527023912901e+00 5.5093470354779384e-01 1.0179557395802972e+00 5.0810827124760805e-01 1.0605008634702236e-01 2.7453804091836198e-01 5.9118462411908290e-01 1.5062392535805871e+00 1.9110920966071355e-02 7.4847789024268196e-02 1.8157399753078751e-01 4.0810224443618359e-01 1.4791601892372230e+00 1.4286267611816776e+00 1.0024506035633476e+00 6.6764424553629631e-01 1.0022838038894610e+00 1.2167323164765089e+00 4.8999290054520916e-02 1.5326066583167925e+00 6.6380892266951250e-02 1.6705293588727419e+00 1.5506013683598985e+00 9.8999031406688420e-01 3.1814506832933459e-01 1.0140180063153852e+00 2.4460689058258717e-01 9.9781630720117565e-01 1.5106554698314469e+00 1.3114846845226600e+00 1.6206393602800409e+00 6.3922116011314489e-01 9.9809117703005923e-01 9.1943929017005621e-01 4.7130773147664318e-01 8.8364177097970753e-01 1.1338511457395319e+00 2.9577247468698298e-01 3.5366162046946775e-01 1.2074405092691833e+00 1.2473233058264657e+00 6.3071571210476240e-01 1.0003498341106773e+00 6.6128383122712298e-01 8.5283002826965371e-01 1.0474163099678320e+00 1.3942704477317749e+00 1.0011512258946600e+00 2.5725152982868416e-01 3.6584523110924372e-01 1.5127955886258204e-01 3.2833728075529267e-01 1.2462735037525059e+00 1.0002039674191159e+00 6.7352188872520452e-02 1.1998754186472249e+00 1.0006996201303144e+00 9.9930757833165362e-01 1.1757411303871992e+00 1.0001717897221427e+00 1.2150245827465516e+00 1.1432990188766659e+00 8.2086880925478511e-01 8.9183933072356614e-02 1.0174484445579739e+00 1.0005159990051653e+00 8.6520205223379221e-01 1.0006828309211471e+00 1.4014330345345831e+00 9.9971880655039802e-01 1.6378098845580189e+00 1.0065189363896041e+00 1.0000058758417776e+00 1.1990473935812416e+00 1.0011719898985278e+00 1.0006313186746549e+00 1.1326903752577939e+00 2.2665981163256577e-01 8.3479557958369366e-01 1.1613650270483469e+00 1.0017815121648159e+00 4.6348076129176874e-01 9.9974324350972665e-01 9.0809238056926145e-01 2.8553445595639987e-01 1.3427340600866144e+00 4.4695354793938835e-01 1.9732775964186722e-01 5.4566725681771433e-01 9.9874365487151795e-01 1.0193718894654915e+00 9.9670640342520689e-01 1.0040462455793784e+00 7.4230957197395531e-01 9.9595304904991200e-01 1.0518152389930910e+00 1.0053649810341829e+00 1.0951229401201246e+00 1.0096211695718380e+00 1.1453893485285631e+00 1.1665351799501460e+00 9.9668766115188923e-01 1.0166511637532700e+00 1.0027197315395424e+00 1.0088875055478712e+00 4.3371424349755605e-02 9.9864137748958026e-01 1.0006748625682182e+00 1.0081041369130426e+00 1.4868519930914927e+00 9.9965368135442967e-01 1.0117538240751351e+00 9.9111364719157558e-01 9.3417565560196181e-01 1.0864254787165204e+00 1.1157835583469269e+00 9.9931045764019100e-01 8.3770217747247189e-01 1.0005608227300664e+00 1.0469115279646237e+00 1.0400660002342397e+00 1.0137713213770940e+00 4.4792271489268709e-01 1.0011798555644771e+00 1.0268987817735447e+00 9.2971716226179435e-01 9.1688820899788603e-01 1.0376374351211908e+00 1.3856811324178689e-01 9.9893144858139105e-01 1.0023976229674250e+00 1.0000018765297785e+00 1.0321082450844619e+00 9.9945740629438551e-01 1.0852324183363089e+00 1.1239771331957082e+00 1.0506257623441591e+00 1.0441071804165107e+00 1.0035879036638846e+00 9.9756420236879839e-01 1.0926772019025761e+00 9.9203475626733351e-01 9.7669463133676460e-01 8.5177610369819035e-01 1.2492550648625032e+00 1.1091876584297675e+00 1.0813010783706849e+00 1.0600853511159185e+00 1.0687400723096463e+00 1.0232692486879262e+00 9.3939200429400893e-01 9.1520622270488783e-01 9.9900378770543496e-01 1.5108418532152093e+00 1.0370159864430317e+00 1.0706478711149656e+00 9.9615366417008855e-01 1.0084217724315523e+00 9.8203448020792672e-01 1.0640542471881651e+00 9.9733482463414713e-01 1.0101824647948903e+00 1.1915548495946042e+00 9.9561306815823025e-01 1.0341235642388464e+00 9.9770581220156840e-01 9.9056853290721902e-01 9.9002647397519417e-01 9.8570607987206615e-01 9.7311556859821202e-01 9.7901512667384605e-01 8.7454755502487758e-01 9.8548569528663443e-01 9.9232487126374269e-01 9.7886704993479212e-01 9.9432280007934404e-01 1.1581266597839530e+00 9.9627338467045790e-01 9.9604686453066482e-01 1.1534795356413692e+00 1.0129332021641606e+00 9.8761036199566088e-01 1.2606723299463638e+00 7.5767080337794801e-01 1.0032622071798021e+00 1.1269464281961876e+00 1.0223888258228757e+00 1.0077949135248643e+00 1.0234351841326641e+00 9.9756523340450720e-01 9.8379749409382400e-01 1.4231565520263201e+00 6.8474955578310537e-01 9.9881032474661535e-01 1.0017053920125585e+00 9.9937837242760419e-01 1.0389179761155773e+00 1.0016328047752214e+00 1.0076547905055067e+00 1.1226485554062831e+00 1.1642668599836028e+00 1.0143729105700079e+00 1.0129433255065989e+00 9.7101905900683505e-01 9.8122536448569797e-01 1.0290352190920375e+00 9.9908767350489813e-01 1.0322759283503125e+00 1.0037685542507249e+00 1.5419662234850151e-01 9.7336725846113115e-01 1.0065275707347887e+00 9.4622635892998730e-01 8.0778182768978724e-01 9.7001584878657177e-02 1.0380962457725953e+00 1.9380379266225611e-01 5.2622353157805640e-02 1.0257126619868056e+00 9.6858671919485095e-01 9.9441068885455264e-01 1.0101808243184549e+00 9.0563210213830225e-01 1.0120731952355535e+00 1.0020076369698028e+00 1.0000003538837328e+00 8.5841497085630025e-01 9.9999164782587235e-01 9.9998511854555105e-01 1.0035832799926065e+00 1.5198542033676903e+00 1.0017237695709773e+00 1.0649333201387485e+00 1.6341652738454981e+00 1.0023908670798600e+00 1.0904019424749274e+00 9.9872631424657454e-01 1.0439428636115835e+00 8.6785603608385309e-01 9.3923616535169652e-01 1.0000125358101513e+00 9.6372340750553065e-01 1.0369728883600202e+00 9.9900682267667251e-01 9.8884348895239782e-01 9.4606335977591960e-01 9.9802758356155996e-01 9.6369837724018881e-01 1.0291323713773521e+00 1.0423028408383028e+00 9.8686752046923698e-01 9.3106676176846737e-01 1.0686815491866775e+00 1.0000142996445966e+00 9.7521859437234881e-01 9.9964784941826945e-01 1.0018632228371436e+00 1.0026752349407486e+00 1.0762593056530310e+00 1.3664784637945284e+00 8.7070599055690356e-01 1.0033094070065600e+00 8.3183290715351510e-01 1.1008825931008952e+00 7.4209103383142155e-02 1.0242258148452823e+00 1.0498886090434665e+00 1.1236122021498831e+00 9.5641826376843164e-01 8.8237165319076660e-01 9.9055014043072331e-01 1.0307342287818142e+00 9.9372660925948808e-01 9.4282104991201976e-01 7.0639473441318823e-01 7.1068507207607223e-01 1.2821174236134016e+00 9.5987704261446249e-01 1.5738929626768270e+00 7.8435645656146780e-01 1.0605722932185535e+00 9.3638667482485993e-01 4.4090422507521120e-02 5.4304672685097177e-01 9.9998176599798128e-01 8.9467539970990717e-01 9.9995410791127726e-01 1.0324098591795225e+00 1.5770286424431190e+00 8.9946039549504631e-01 9.0663996166092986e-01 1.0975540965542321e+00 1.0219956268843631e+00 9.8250088475955311e-01 1.0000189706106659e+00 1.0719063585498039e+00 7.9504204463882629e-03 1.2976177846081885e-01 9.4837730389990293e-01 1.2579175960167113e+00 8.9737182286713479e-01 1.2224111617560594e+00 1.0558782749485276e+00 1.0000562244549736e+00 9.4396002371353183e-01 1.0566589269319375e+00 9.1169932802453835e-01 1.0525817261327508e+00 1.0635257363908670e+00 6.9121305162153046e-01 8.6535165990841434e-01 3.4308337731238725e-01 9.9666828458350665e-01 1.3549463021249888e+00 9.7749047352114560e-01 1.0010933764529397e+00 8.8174242787147694e-01 2.1763509272463960e-01 9.7529676065524529e-01 1.0041909143187673e+00 1.3500256026232549e+00 4.2083988399991334e-01 1.0000538231454328e+00 1.5368389279013714e+00 7.8927951086397119e-01 1.0255551034131396e+00 7.8048807007129428e-01 9.9394942570835187e-01 1.0330472844959371e+00 9.9883969692333530e-01 1.4025748685360930e+00 3.8721834404806205e-01 5.1889321446985959e-01 8.2660154146140097e-01 1.1820620466315839e+00 9.0088653329006019e-01 1.4962445013211938e+00 1.6009383047794699e+00 2.1881115298685153e-02 1.1578906106602682e+00 7.6933785289214696e-01 3.3457319754497221e-02 8.3123177754526467e-01 2.9712718832144221e-02 8.0292370758827536e-01 1.2039291424012739e+00 1.2152174732540306e+00 1.0522088030179524e+00 3.4316525227056402e-02 1.2672549714197709e+00 1.1553403416699721e+00 1.3300153699026191e+00 1.0848304755656397e+00 9.9756252417314095e-01 9.9993193766135147e-01 9.9675706479059567e-01 9.5526169260334093e-01 6.5745374860313988e-01 1.0854136537149635e+00 1.3471781602347528e+00 1.9809717953855091e-01 8.7215901893319914e-01 1.8245377912279301e-02 8.7177610984196985e-01 3.0768251870384405e-01 9.1398257630612711e-01 1.0833192550643229e+00 1.0000619512953612e+00 5.7599480487085450e-02 1.2786626403493422e+00 1.092123701901833