<?xml version="1.0"?>
<VTKFile type="UnstructuredGrid"  byte_order="LittleEndian">
<UnstructuredGrid>
<Piece NumberOfPoints="1092" NumberOfCells=" 2186">
<Points>
<DataArray type="Float32" NumberOfComponents="3" format="ascii">
24.500034 0.572275 0.000000 5.136674 1.560184 0.000000 0.826631 -4.063105 0.000000 31.659227 -4.063105 0.000000 0.826631 4.205925 0.000000 31.659227 4.205925 0.000000 24.496115 0.650795 0.000000 24.484398 0.728535 0.000000 24.464998 0.804722 0.000000 24.438108 0.878599 0.000000 24.403997 0.949431 0.000000 24.363005 1.016515 0.000000 24.315535 1.079184 0.000000 24.262060 1.136815 0.000000 24.203114 1.188836 0.000000 24.139280 1.234728 0.000000 24.071196 1.274037 0.000000 23.999535 1.306372 0.000000 23.925011 1.331411 0.000000 23.848364 1.348905 0.000000 23.770355 1.358681 0.000000 23.691763 1.360641 0.000000 23.613365 1.354766 0.000000 23.535940 1.341114 0.000000 23.460260 1.319821 0.000000 23.387077 1.291098 0.000000 23.317118 1.255232 0.000000 23.251078 1.212578 0.000000 23.189611 1.163561 0.000000 23.133331 1.108667 0.000000 23.082796 1.048442 0.000000 23.038509 0.983484 0.000000 23.000910 0.914440 0.000000 22.970371 0.841996 0.000000 22.947199 0.766871 0.000000 22.931622 0.689811 0.000000 22.923794 0.611584 0.000000 22.923794 0.532966 0.000000 22.931622 0.454739 0.000000 22.947199 0.377680 0.000000 22.970371 0.302554 0.000000 23.000910 0.230110 0.000000 23.038509 0.161066 0.000000 23.082796 0.096109 0.000000 23.133331 0.035884 0.000000 23.189611 -0.019010 0.000000 23.251078 -0.068028 0.000000 23.317118 -0.110682 0.000000 23.387077 -0.146548 0.000000 23.460260 -0.175270 0.000000 23.535940 -0.196563 0.000000 23.613365 -0.210215 0.000000 23.691763 -0.216090 0.000000 23.770355 -0.214130 0.000000 23.848364 -0.204355 0.000000 23.925011 -0.186861 0.000000 23.999535 -0.161822 0.000000 24.071196 -0.129487 0.000000 24.139280 -0.090178 0.000000 24.203114 -0.044285 0.000000 24.262060 0.007735 0.000000 24.315535 0.065366 0.000000 24.363005 0.128035 0.000000 24.403997 0.195119 0.000000 24.438108 0.265951 0.000000 24.464998 0.339828 0.000000 24.484398 0.416015 0.000000 24.496115 0.493755 0.000000 5.130713 1.679639 0.000000 5.112887 1.797907 0.000000 5.083374 1.913812 0.000000 5.042467 2.026202 0.000000 4.990573 2.133961 0.000000 4.928207 2.236018 0.000000 4.855990 2.331358 0.000000 4.774639 2.419034 0.000000 4.684963 2.498173 0.000000 4.587852 2.567991 0.000000 4.484272 2.627793 0.000000 4.375253 2.676985 0.000000 4.261877 2.715077 0.000000 4.145272 2.741691 0.000000 4.026597 2.756563 0.000000 3.907031 2.759545 0.000000 3.787761 2.750607 0.000000 3.669975 2.729838 0.000000 3.554842 2.697444 0.000000 3.443506 2.653748 0.000000 3.337074 2.599184 0.000000 3.236604 2.534293 0.000000 3.143094 2.459722 0.000000 3.057474 2.376210 0.000000 2.980594 2.284588 0.000000 2.913219 2.185767 0.000000 2.856018 2.080729 0.000000 2.809560 1.970517 0.000000 2.774306 1.856227 0.000000 2.750607 1.738995 0.000000 2.738698 1.619986 0.000000 2.738698 1.500382 0.000000 2.750607 1.381373 0.000000 2.774306 1.264141 0.000000 2.809560 1.149851 0.000000 2.856018 1.039639 0.000000 2.913219 0.934601 0.000000 2.980594 0.835779 0.000000 3.057474 0.744158 0.000000 3.143094 0.660646 0.000000 3.236604 0.586075 0.000000 3.337074 0.521184 0.000000 3.443506 0.466620 0.000000 3.554842 0.422924 0.000000 3.669975 0.390530 0.000000 3.787761 0.369761 0.000000 3.907031 0.360823 0.000000 4.026597 0.363805 0.000000 4.145272 0.378677 0.000000 4.261877 0.405291 0.000000 4.375253 0.443383 0.000000 4.484272 0.492575 0.000000 4.587852 0.552377 0.000000 4.684963 0.622194 0.000000 4.774639 0.701334 0.000000 4.855990 0.789010 0.000000 4.928207 0.884350 0.000000 4.990573 0.986406 0.000000 5.042467 1.094166 0.000000 5.083374 1.206556 0.000000 5.112887 1.322461 0.000000 5.130713 1.440729 0.000000 1.821231 -4.063105 0.000000 2.815831 -4.063105 0.000000 3.810431 -4.063105 0.000000 4.805031 -4.063105 0.000000 5.799631 -4.063105 0.000000 6.794230 -4.063105 0.000000 7.788830 -4.063105 0.000000 8.783430 -4.063105 0.000000 9.778030 -4.063105 0.000000 10.772630 -4.063105 0.000000 11.767230 -4.063105 0.000000 12.761830 -4.063105 0.000000 13.756430 -4.063105 0.000000 14.751030 -4.063105 0.000000 15.745629 -4.063105 0.000000 16.740229 -4.063105 0.000000 17.734829 -4.063105 0.000000 18.729429 -4.063105 0.000000 19.724030 -4.063105 0.000000 20.718630 -4.063105 0.000000 21.713228 -4.063105 0.000000 22.707829 -4.063105 0.000000 23.702429 -4.063105 0.000000 24.697029 -4.063105 0.000000 25.691629 -4.063105 0.000000 26.686228 -4.063105 0.000000 27.680828 -4.063105 0.000000 28.675428 -4.063105 0.000000 29.670029 -4.063105 0.000000 30.664627 -4.063105 0.000000 0.826631 3.287143 0.000000 0.826631 2.368362 0.000000 0.826631 1.449581 0.000000 0.826631 0.530800 0.000000 0.826631 -0.387981 0.000000 0.826631 -1.306762 0.000000 0.826631 -2.225543 0.000000 0.826631 -3.144324 0.000000 31.659227 -3.144324 0.000000 31.659227 -2.225543 0.000000 31.659227 -1.306762 0.000000 31.659227 -0.387981 0.000000 31.659227 0.530800 0.000000 31.659227 1.449581 0.000000 31.659227 2.368362 0.000000 31.659227 3.287143 0.000000 30.664627 4.205925 0.000000 29.670029 4.205925 0.000000 28.675428 4.205925 0.000000 27.680828 4.205925 0.000000 26.686228 4.205925 0.000000 25.691629 4.205925 0.000000 24.697029 4.205925 0.000000 23.702429 4.205925 0.000000 22.707829 4.205925 0.000000 21.713228 4.205925 0.000000 20.718630 4.205925 0.000000 19.724030 4.205925 0.000000 18.729429 4.205925 0.000000 17.734829 4.205925 0.000000 16.740229 4.205925 0.000000 15.745629 4.205925 0.000000 14.751030 4.205925 0.000000 13.756430 4.205925 0.000000 12.761830 4.205925 0.000000 11.767230 4.205925 0.000000 10.772630 4.205925 0.000000 9.778030 4.205925 0.000000 8.783430 4.205925 0.000000 7.788830 4.205925 0.000000 6.794230 4.205925 0.000000 5.799631 4.205925 0.000000 4.805031 4.205925 0.000000 3.810431 4.205925 0.000000 2.815831 4.205925 0.000000 1.821231 4.205925 0.000000 30.901499 0.117424 0.000000 19.287910 -3.241462 0.000000 19.311838 3.357763 0.000000 8.277148 -3.181989 0.000000 8.286130 3.344576 0.000000 27.148077 -3.253542 0.000000 12.310080 -3.023474 0.000000 16.242929 -3.201756 0.000000 27.158468 3.465676 0.000000 14.190361 3.326714 0.000000 11.299438 3.369900 0.000000 21.277048 -3.278367 0.000000 1.613630 -1.855229 0.000000 3.120157 0.539455 0.000000 2.936567 0.718590 0.000000 5.265253 -3.262660 0.000000 2.809951 0.932885 0.000000 2.679408 1.180207 0.000000 2.622590 1.404084 0.000000 2.636909 1.690286 0.000000 2.684218 1.944687 0.000000 2.803860 2.190271 0.000000 2.939218 2.382172 0.000000 3.143294 2.578241 0.000000 3.340401 2.713121 0.000000 3.591215 2.835147 0.000000 3.826718 2.889384 0.000000 4.105946 2.859700 0.000000 4.336466 2.795173 0.000000 4.594589 2.670779 0.000000 4.798338 2.536266 0.000000 25.313099 -3.278892 0.000000 21.114506 3.403339 0.000000 23.277386 -3.244982 0.000000 17.245796 3.323250 0.000000 14.287793 -3.227188 0.000000 10.233125 -3.207675 0.000000 29.110620 -3.065398 0.000000 29.198450 3.434891 0.000000 25.246092 3.416177 0.000000 23.053621 3.437593 0.000000 6.432697 3.466191 0.000000 5.088260 2.107415 0.000000 3.445983 -3.191905 0.000000 30.907694 1.898333 0.000000 30.930857 -1.732776 0.000000 1.618545 0.035257 0.000000 1.451627 2.810146 0.000000 5.295781 3.481249 0.000000 5.815255 2.820580 0.000000 4.674209 3.469260 0.000000 24.136330 3.509997 0.000000 23.661226 2.666726 0.000000 23.562523 1.416467 0.000000 23.724873 1.420788 0.000000 4.929677 3.061622 0.000000 22.324350 3.428125 0.000000 22.716820 2.736887 0.000000 23.319477 1.336852 0.000000 22.069828 2.776118 0.000000 22.312981 2.287792 0.000000 23.047569 1.126029 0.000000 21.823444 2.302723 0.000000 22.039303 1.918836 0.000000 21.607199 1.893280 0.000000 21.866852 1.518809 0.000000 21.353313 1.504637 0.000000 21.594368 1.124052 0.000000 21.150984 1.082567 0.000000 21.441158 0.653371 0.000000 20.846867 0.659345 0.000000 22.860600 0.571368 0.000000 22.890446 0.826824 0.000000 22.955538 0.982875 0.000000 21.121824 0.190917 0.000000 20.523333 0.167218 0.000000 20.222509 0.759838 0.000000 19.878958 0.158775 0.000000 19.549187 0.761231 0.000000 19.146343 0.184881 0.000000 20.217096 -0.427504 0.000000 21.649456 0.169474 0.000000 22.914257 0.236797 0.000000 21.391586 -0.249014 0.000000 21.871408 -0.231610 0.000000 21.656895 -0.646869 0.000000 22.134169 -0.578637 0.000000 23.175615 -0.099556 0.000000 23.052649 0.019577 0.000000 21.907593 -1.023162 0.000000 22.388815 -0.956153 0.000000 22.148363 -1.451981 0.000000 22.621206 -1.417005 0.000000 23.395662 -0.218406 0.000000 18.775892 0.813610 0.000000 18.345617 0.177740 0.000000 21.670712 -1.471182 0.000000 21.130920 1.915375 0.000000 22.453650 1.860943 0.000000 22.824928 -1.022466 0.000000 23.026134 -1.356089 0.000000 23.200994 -0.969636 0.000000 23.642132 -0.287123 0.000000 23.403297 -1.325228 0.000000 23.598799 -0.982542 0.000000 23.756060 -1.303023 0.000000 23.937439 -1.015074 0.000000 24.065207 -0.210021 0.000000 23.898067 -0.269327 0.000000 24.101053 -1.292290 0.000000 24.237963 -1.009786 0.000000 24.437136 -1.275805 0.000000 24.555351 -0.946382 0.000000 24.284502 -0.079719 0.000000 24.785254 -1.253811 0.000000 24.930220 -0.948399 0.000000 25.153889 -1.245642 0.000000 25.292206 -0.837151 0.000000 25.577702 -1.239232 0.000000 25.774311 -0.828489 0.000000 25.506863 -0.433697 0.000000 25.960320 -0.399596 0.000000 24.519476 0.276894 0.000000 24.443789 0.124848 0.000000 25.690266 -0.037272 0.000000 26.199944 0.093730 0.000000 25.808714 0.445669 0.000000 26.534273 -0.332901 0.000000 26.787586 0.212756 0.000000 24.549845 0.706420 0.000000 24.571733 0.528133 0.000000 27.177212 -0.297625 0.000000 27.451929 0.303189 0.000000 27.882706 -0.272020 0.000000 28.174267 0.403684 0.000000 24.237644 -1.685177 0.000000 26.084141 -1.243826 0.000000 24.725912 -0.682789 0.000000 26.956493 0.939608 0.000000 17.957319 0.879016 0.000000 17.503582 0.154136 0.000000 17.083033 0.925045 0.000000 16.600710 0.166671 0.000000 17.928823
[...]
<CellData Scalars="Label">
<DataArray type="Int32" Name="Label" format="ascii">
1 1 1 1 1 1 1 1 1 1 1 1 1 1 1 1 1 1 1 1 1 1 1 1 1 1 1 1 1 1 1 1 1 1 1 1 1 1 1 1 1 1 1 1 1 1 1 1 1 1 1 1 1 1 1 1 1 1 1 1 1 1 1 1 1 1 1 1 1 1 1 1 1 1 1 1 1 1 1 1 1 1 1 1 1 1 1 1 1 1 1 1 1 1 1 1 1 1 1 1 1 1 1 1 1 1 1 1 1 1 1 1 1 1 1 1 1 1 1 1 1 1 1 1 1 1 1 1 1 1 1 1 1 1 1 1 1 1 1 1 1 1 1 1 1 1 1 1 1 1 1 1 1 1 1 1 1 1 1 1 1 1 1 1 1 1 1 1 1 1 1 1 1 1 1 1 1 1 1 1 1 1 1 1 1 1 1 1 1 1 1 1 1 1 1 1 1 1 1 1 1 1 1 1 1 1 1 1 1 1 1 1 1 1 1 1 1 1 1 1 1 1 1 1 1 1 1 1 1 1 1 1 1 1 1 1 1 1 1 1 1 1 1 1 1 1 1 1 1 1 1 1 1 1 1 1 1 1 1 1 1 1 1 1 1 1 1 1 1 1 1 1 1 1 1 1 1 1 1 1 1 1 1 1 1 1 1 1 1 1 1 1 1 1 1 1 1 1 1 1 1 1 1 1 1 1 1 1 1 1 1 1 1 1 1 1 1 1 1 1 1 1 1 1 1 1 1 1 1 1 1 1 1 1 1 1 1 1 1 1 1 1 1 1 1 1 1 1 1 1 1 1 1 1 1 1 1 1 1 1 1 1 1 1 1 1 1 1 1 1 1 1 1 1 1 1 1 1 1 1 1 1 1 1 1 1 1 1 1 1 1 1 1 1 1 1 1 1 1 1 1 1 1 1 1 1 1 1 1 1 1 1 1 1 1 1 1 1 1 1 1 1 1 1 1 1 1 1 1 1 1 1 1 1 1 1 1 1 1 1 1 1 1 1 1 1 1 1 1 1 1 1 1 1 1 1 1 1 1 1 1 1 1 1 1 1 1 1 1 1 1 1 1 1 1 1 1 1 1 1 1 1 1 1 1 1 1 1 1 1 1 1 1 1 1 1 1 1 1 1 1 1 1 1 1 1 1 1 1 1 1 1 1 1 1 1 1 1 1 1 1 1 1 1 1 1 1 1 1 1 1 1 1 1 1 1 1 1 1 1 1 1 1 1 1 1 1 1 1 1 1 1 1 1 1 1 1 1 1 1 1 1 1 1 1 1 1 1 1 1 1 1 1 1 1 1 1 1 1 1 1 1 1 1 1 1 1 1 1 1 1 1 1 1 1 1 1 1 1 1 1 1 1 1 1 1 1 1 1 1 1 1 1 1 1 1 1 1 1 1 1 1 1 1 1 1 1 1 1 1 1 1 1 1 1 1 1 1 1 1 1 1 1 1 1 1 1 1 1 1 1 1 1 1 1 1 1 1 1 1 1 1 1 1 1 1 1 1 1 1 1 1 1 1 1 1 1 1 1 1 1 1 1 1 1 1 1 1 1 1 1 1 1 1 1 1 1 1 1 1 1 1 1 1 1 1 1 1 1 1 1 1 1 1 1 1 1 1 1 1 1 1 1 1 1 1 1 1 1 1 1 1 1 1 1 1 1 1 1 1 1 1 1 1 1 1 1 1 1 1 1 1 1 1 1 1 1 1 1 1 1 1 1 1 1 1 1 1 1 1 1 1 1 1 1 1 1 1 1 1 1 1 1 1 1 1 1 1 1 1 1 1 1 1 1 1 1 1 1 1 1 1 1 1 1 1 1 1 1 1 1 1 1 1 1 1 1 1 1 1 1 1 1 1 1 1 1 1 1 1 1 1 1 1 1 1 1 1 1 1 1 1 1 1 1 1 1 1 1 1 1 1 1 1 1 1 1 1 1 1 1 1 1 1 1 1 1 1 1 1 1 1 1 1 1 1 1 1 1 1 1 1 1 1 1 1 1 1 1 1 1 1 1 1 1 1 1 1 1 1 1 1 1 1 1 1 1 1 1 1 1 1 1 1 1 1 1 1 1 1 1 1 1 1 1 1 1 1 1 1 1 1 1 1 1 1 1 1 1 1 1 1 1 1 1 1 1 1 1 1 1 1 1 1 1 1 1 1 1 1 1 1 1 1 1 1 1 1 1 1 1 1 1 1 1 1 1 1 1 1 1 1 1 1 1 1 1 1 1 1 1 1 1 1 1 1 1 1 1 1 1 1 1 1 1 1 1 1 1 1 1 1 1 1 1 1 1 1 1 1 1 1 1 1 1 1 1 1 1 1 1 1 1 1 1 1 1 1 1 1 1 1 1 1 1 1 1 1 1 1 1 1 1 1 1 1 1 1 1 1 1 1 1 1 1 1 1 1 1 1 1 1 1 1 1 1 1 1 1 1 1 1 1 1 1 1 1 1 1 1 1 1 1 1 1 1 1 1 1 1 1 1 1 1 1 1 1 1 1 1 1 1 1 1 1 1 1 1 1 1 1 1 1 1 1 1 1 1 1 1 1 1 1 1 1 1 1 1 1 1 1 1 1 1 1 1 1 1 1 1 1 1 1 1 1 1 1 1 1 1 1 1 1 1 1 1 1 1 1 1 1 1 1 1 1 1 1 1 1 1 1 1 1 1 1 1 1 1 1 1 1 1 1 1 1 1 1 1 1 1 1 1 1 1 1 1 1 1 1 1 1 1 1 1 1 1 1 1 1 1 1 1 1 1 1 1 1 1 1 1 1 1 1 1 1 1 1 1 1 1 1 1 1 1 1 1 1 1 1 1 1 1 1 1 1 1 1 1 1 1 1 1 1 1 1 1 1 1 1 1 1 1 1 1 1 1 1 1 1 1 1 1 1 1 1 1 1 1 1 1 1 1 1 1 1 1 1 1 1 1 1 1 1 1 1 1 1 1 1 1 1 1 1 1 1 1 1 1 1 1 1 1 1 1 1 1 1 1 1 1 1 1 1 1 1 1 1 1 1 1 1 1 1 1 1 1 1 1 1 1 1 1 1 1 1 1 1 1 1 1 1 1 1 1 1 1 1 1 1 1 1 1 1 1 1 1 1 1 1 1 1 1 1 1 1 1 1 1 1 1 1 1 1 1 1 1 1 1 1 1 1 1 1 1 1 1 1 1 1 1 1 1 1 1 1 1 1 1 1 1 1 1 1 1 1 1 1 1 1 1 1 1 1 1 1 1 1 1 1 1 1 1 1 1 1 1 1 1 1 1 1 1 1 1 1 1 1 1 1 1 1 1 1 1 1 1 1 1 1 1 1 1 1 1 1 1 1 1 1 1 1 1 1 1 1 1 1 1 1 1 1 1 1 1 1 1 1 1 1 1 1 1 1 1 1 1 1 1 1 1 1 1 1 1 1 1 1 1 1 1 1 1 1 1 1 1 1 1 1 1 1 1 1 1 1 1 1 1 1 1 1 1 1 1 1 1 1 1 1 1 1 1 1 1 1 1 1 1 1 1 1 1 1 1 1 1 1 1 1 1 1 1 1 1 1 1 1 1 1 1 1 1 1 1 1 1 1 1 1 1 1 1 1 1 1 1 1 1 1 1 1 1 1 1 1 1 1 1 1 1 1 1 1 1 1 1 1 1 1 1 1 1 1 1 1 1 1 1 1 1 1 1 1 1 1 1 1 1 1 1 1 1 1 1 1 1 1 1 1 1 1 1 1 1 1 1 1 1 1 1 1 1 1 1 1 1 1 1 1 1 1 1 1 1 1 1 1 1 1 1 1 1 1 1 1 1 1 1 1 1 1 1 1 1 1 1 1 1 1 1 1 1 1 1 1 1 1 1 1 1 1 1 1 1 1 1 1 1 1 1 1 1 1 1 1 1 1 1 1 1 1 1 1 1 1 1 1 1 1 1 1 1 1 1 1 1 1 1 1 1 1 1 1 1 1 1 1 1 1 1 1 1 1 1 1 1 1 1 1 1 1 1 1 1 1 1 1 1 1 1 1 1 1 1 1 1 1 1 1 1 1 1 1 1 1 1 1 1 1 1 1 1 1 1 1 1 1 1 1 1 1 1 1 1 1 1 1 1 1 1 1 1 1 1 1 1 1 1 1 1 1 1 1 1 1 1 1 1 1 1 1 1 1 1 1 1 1 1 1 1 1 1 1 1 1 1 1 1 1 1 1 1 1 1 1 1 1 1 1 1 1 1 1 1 1 1 1 1 1 1 1 1 1 1 1 1 1 1 1 1 1 1 1 1 1 1 1 1 1 1 1 1 1 1 1 1 1 1 1 1 1 1 1 1 1 1 1 1 1 1 1 1 1 1 1 1 1 1 1 1 1 1 1 1 1 1 1 1 1 1 1 1 1 1 1 1 1 1 1 1 1 1 1 1 1 1 1 1 1 1 1 1 1 1 1 1 1 1 1 1 1 1 1 1 1 1 1 1 1 1 5 5 5 5 5 5 5 5 5 5 5 5 5 5 5 5 5 5 5 5 5 5 5 5 5 5 5 5 5 5 5 5 5 5 5 5 5 5 5 5 5 5 5 5 5 5 5 5 5 5 5 5 5 5 5 5 5 5 5 5 5 5 5 5 5 5 5 5 5 5 5 5 5 5 5 5 5 5 5 5 5 5 5 5 5 5 5 5 5 5 5 5 5 5 5 5 5 5 5 5 5 5 5 5 5 5 5 5 5 5 5 5 5 5 5 5 5 5 5 5 5 5 5 5 5 5 4 4 4 4 4 4 4 4 4 4 4 4 4 4 4 4 4 4 4 4 4 4 4 4 4 4 4 4 4 4 4 2 2 2 2 2 2 2 2 2 3 3 3 3 3 3 3 3 3 4 4 4 4 4 4 4 4 4 4 4 4 4 4 4 4 4 4 4 4 4 4 4 4 4 4 4 4 4 4 4 
</DataArray>
<DataArray type="Float64" Name="u" NumberOfComponents="1" format="ascii">
1.3060449030657395e+00 1.2310510804907138e+00 6.1870021250039142e-01 1.4281024175281956e+00 1.1095069412268310e+00 2.2117075617719612e-01 1.2241846922723083e+00 6.9798283329851843e-02 3.4862380726344300e-01 1.2629680932036260e+00 1.8084380389931343e-01 6.4034491257051973e-01 6.9428760856887994e-01 2.1280666315099175e-01 1.8031841793067022e-02 6.3412120474923461e-01 1.0162662555674171e+00 5.4482117980718059e-01 6.9394243810522782e-01 6.7974957219742593e-01 3.6727840520507338e-01 8.8986142122291512e-01 1.7025335948350936e-01 4.8101700272212300e-01 9.9060814083878790e-01 7.3174462493100578e-01 4.4055014158953631e-01 1.3729089043768159e+00 2.8079522925499317e-01 1.5685203123751910e+00 1.0743978915903756e+00 2.9833857901357597e-01 3.7633324851060329e-02 1.3892033706508089e+00 6.2210260036430232e-01 1.3237975613950850e+00 4.8907414702758245e-01 3.8670461092438158e-01 3.6189510917655837e-01 8.3780787002372747e-01 4.2991808355072747e-01 9.5998945274181502e-01 5.8669548347724872e-02 6.8606968085307640e-01 2.6391587572023112e-01 6.2072933636395455e-01 2.9118184075612552e-01 4.1173141505582900e-01 8.9790084753791222e-01 6.0393930864818013e-01 7.7988175579160801e-01 5.6275434639856392e-01 1.1623464878656469e+00 1.0991997028955955e+00 1.0686930699255521e+00 6.2909010065871629e-01 9.0810188721504848e-01 1.0410720138568994e+00 3.6025148397663165e-01 1.2401581920494023e+00 1.1407587948392328e+00 1.4658836989686523e+00 6.6556092456971050e-01 2.0513996340268897e-01 1.0365606041803082e+00 1.3684039952931878e-01 8.6610160850315210e-01 6.1526516560890587e-01 1.0536255470875205e-01 4.5634076730337336e-01 1.1647561138111578e-02 2.8575541542545640e-01 2.0545199524798055e-01 1.1287159844392733e+00 8.2778450709455542e-01 2.0203431622322698e-01 6.7121690925031263e-01 4.6146632493149337e-01 6.0275460733330322e-01 1.1606367238766671e-01 4.3262840185630469e-01 1.8261219791797839e-01 1.2449528205530058e-02 8.9678031887225140e-01 4.9921352396336494e-01 1.2722587773694323e+00 2.6335997292090130e-01 3.0878804325340709e-01 1.0862845165498083e+00 1.2812740626582779e+00 2.8019599036287163e-01 9.3382570299664813e-01 2.7618931769459121e-01 4.5696130951249536e-01 4.8171322419797868e-01 9.2299909525618995e-01 1.2145616154058116e+00 5.7281349554205918e-01 8.1399943473185554e-01 9.1033402883830794e-01 1.2243720324473206e+00 4.4689939640594278e-01 2.8855996707562453e-01 1.3847789880562936e-01 1.2251938670711262e+00 7.6158154834252001e-01 1.0522787274388329e-01 4.4440605452846871e-01 8.5369259111701667e-01 2.5771089243909667e-01 2.2355949890558188e-01 9.0580125603267458e-01 5.6978969464111051e-01 3.1359594883161657e-01 1.9161929916975007e-01 1.9920531322775803e-01 1.3129047477433367e+00 3.9448604033302814e-01 1.2894409788230641e+00 8.6400717027025442e-01 1.1816846738200282e+00 8.6558184422373186e-01 1.1024851955482005e+00 9.6748142181933361e-01 3.7128767634420398e-02 5.9458227368663907e-01 7.0093942876034243e-01 9.4611638674099233e-02 9.1305142458215660e-01 1.7142893679775701e+00 1.8672301037720607e-01 8.0152946861213659e-01 5.5844311080545439e-01 4.6089079308568359e-01 9.9397210579591144e-01 8.8311954641386148e-01 1.2242954524379885e+00 5.3612482543915019e-01 1.5183464083341067e+00 6.9859462047751753e-01 1.6593755497568528e+00 3.9256884064565034e-01 2.3813426916740041e-01 1.0979365201237503e+00 1.1798768526061230e+00 5.0515268522732404e-01 9.0426577482929926e-01 2.5572109236889401e-01 3.1907397804821225e-01 7.6829908667530322e-01 1.4156441231053067e+00 9.5526248293877170e-01 4.3521336236425945e-01 1.1336514395851567e+00 1.2087834921046845e+00 1.4531974826407685e+00 1.1414347994084086e+00 2.5159801354223899e-01 8.1675924238332076e-01 6.0774566281952169e-01 1.2984694943187829e+00 1.3311928208172803e+00 8.4210415320080989e-01 9.4410846273718785e-01 1.0866109486139484e+00 1.4607091095097284e+00 8.2054374907876149e-01 2.3202257700285522e-01 2.0992914447200606e-01 9.3104298912477745e-01 8.6216021521864605e-01 1.0861553588348495e-01 4.0720123397198926e-01 1.3663990699408441e+00 9.6227818202341098e-01 2.7482030407931823e-01 1.0692840707011111e+00 6.5734849987270749e-01 9.1732392606818469e-01 1.1170434192133691e+00 9.1225963403076471e-01 5.5291020079389380e-02 1.0698772819601081e+00 1.1482467687691844e+00 2.0067554248578459e-01 2.5273026358266798e-01 2.8672335969283091e-01 8.4816019943989307e-01 1.1120282058258308e+00 1.1984148280443186e-02 8.0046987613269294e-01 7.6133128216786772e-01 4.1420621743648778e-01 7.6487820345405333e-01 1.8514483502616214e-01 2.9279315118954352e-01 1.1818341677148467e+00 1.0713108765170917e-01 1.2057015348120832e-01 7.9964502685810901e-01 1.3063549665263445e+00 5.7630361502551031e-01 4.1833912981188948e-01 4.8186656991321675e-01 3.8285436779609738e-01 8.4274756324315581e-02 3.6817331111482554e-02 1.3002159738933594e-01 3.9677261372540668e-01 8.5553850635609566e-02 1.6020915556448909e+00 1.2664468612619767e-01 1.2493118385403708e+00 8.2032921812882909e-01 1.0779733582760693e+00 9.9183399053529098e-01 1.0661985176251128e+00 2.8610558865525337e-01 9.7978571011244853e-01 1.2396890223537267e+00 6.1964962598122542e-01 3.8250635730671356e-01 1.0203150227710704e+00 1.3344811630664237e+00 3.6589008526962497e-01 6.8609980110057323e-01 6.8107091196075875e-01 8.5195164275645408e-01 6.2387969961403356e-01 7.4931522426055153e-01 1.3926985028712266e-01 3.5589814795882574e-01 5.6860181283532296e-01 1.4504434105727595e+00 9.0548475026467812e-01 9.4791599404948723e-01 3.0370217227845864e-01 1.6084783748075565e-01 4.0428657324583323e-01 1.2066657246369195e+00 1.3102826260942608e+00 1.3730864707427752e+00 6.2867344268062375e-01 3.7593549202194759e-01 1.1245602758815658e+00 8.2851442489273053e-01 9.8515620103473034e-01 8.2072431632786425e-01 4.4485907546659553e-01 5.4039461107112663e-01 1.3441301807441044e+00 4.3060891314257921e-01 5.7285794854438776e-01 1.0058791403959941e+00 8.7332080209584162e-01 7.8702412705929459e-01 8.8860114884256181e-01 6.4689341645985743e-01 3.8302477942865354e-01 1.6066911166947950e-01 7.2142605523278081e-01 9.3285400670318763e-01 1.1875294492016657e+00 1.0189837575792819e+00 5.1053243649341629e-01 1.0802581885104456e+00 1.6486589323632481e+00 1.5110653020775668e+00 1.2602978746976508e+00 7.1418866632373090e-01 1.0537514786932729e+00 6.5089177156472178e-01 9.2010935312213904e-01 2.4749358590491591e-01 1.8502508167148688e-02 1.6679531537364096e+00 5.0998167485560530e-01 9.8454852862283815e-01 1.6624257193348941e+00 1.0787919913099926e+00 4.6509616843978308e-01 1.0743778497238925e+00 1.7091487877031084e+00 1.2222257903590767e+00 9.1091115188014227e-01 5.7979502909569391e-01 1.2672177854992877e+00 4.7109257343343725e-01 7.5321413987889874e-01 1.3167786970153434e+00 9.8999020366994417e-01 6.8867711511261342e-01 9.1702666334107041e-01 6.0009206683672711e-01 1.5540502211974083e+00 9.6545628791843585e-01 1.2802001172957027e+00 5.6308201948773928e-01 1.3750653811871945e+00 1.3434339562071986e+00 1.2153781127072935e-01 1.7245998528692756e+00 1.0539827792215306e+00 1.6726890181755971e+00 5.8311201425553716e-01 2.5944816922750924e-01 3.8407404833496200e-01 1.8872230478978145e+00 1.0477248495674281e+00 8.8052526140617093e-01 1.7668474665255602e+00 5.0908034106214339e-01 1.2833462857495661e+00 1.2569178041670310e+00 7.9041282783615746e-02 1.1721666892301499e-01 7.2354486375656546e-01 3.4852188454480326e-01 8.7163820223319077e-01 1.9162898593528255e-01 7.7857992787071972e-01 3.9489807169644292e-01 4.6140112218179119e-01 6.2860508376296487e-01 1.2457331509353606e+00 8.5426998931256229e-02 1.2266376426938543e+00 2.9808310592323783e-01 3.8336445683778220e-01 4.2859246918535221e-01 3.1544449732928648e-01 1.3176312188213710e+00 9.5257374824280719e-02 4.3128769917898102e-01 1.0347520425034409e+00 8.6295231269739026e-01 8.1075150606057023e-02 5.8175014085948928e-01 2.0779089637310438e-01 1.1285661708634569e+00 8.6699919451592300e-01 1.1479417232997808e+00 4.4844208651549056e-01 2.4775116445508050e-01 1.1111479726089490e+00 9.1922857802894442e-01 6.7204413107798333e-01 4.2970837764670822e-01 1.0588652648241064e+00 7.3324754256563951e-01 3.1046254234114762e-01 3.3396599523593556e-01 1.2225476886653799e+00 1.4903376845029102e+00 5.5193653930274478e-02 1.3861176506219497e+00 3.7824334265044696e-01 9.1837425262232808e-01 1.1798641279053212e+00 1.1311021055794679e+00 1.6964521021804599e-01 1.4180320080013995e+00 1.4072066809102555e+00 1.1062488064670808e+00 1.4449040665899864e+00 5.1540199328916203e-01 1.0291092879573875e+00 2.9884600412219664e-01 7.8742730593303678e-01 7.9073951706492052e-01 8.0500147149479639e-01 1.0219751028254485e+00 1.1388846060261208e+00 1.0645426097838926e+00 6.4033497933676575e-02 3.9941444934064596e-01 1.5976749380519484e+00 1.6488230684553690e-01 7.5288703538837509e-01 1.4736830263208134e+00 9.5315099746728094e-01 1.0387775577252758e+00 1.6216214427802320e-01 1.8503315034268908e-01 1.2118399720951482e-01 8.4399108327950412e-01 1.1591992955313666e+00 7.3020498324802485e-01 8.8621496161219493e-01 1.7802196440674478e-01 3.9015209346942925e-01 1.3670765955495878e-01 2.8555903099689239e-01 1.0906731578684334e+00 1.4562425506598526e+00 3.4536908726192583e-01 2.4975857475653099e-01 1.0621331434432579e+00 7.4379164283499699e-01 7.1415402299823016e-01 7.5520411831398404e-01 9.7162159467416975e-01 1.7679638074407322e+00 6.7205183931767953e-01 8.1031728957495841e-01 1.1973339144450484e-01 9.8425966476584148e-01 5.3718941817132904e-01 1.3801111534146799e+00 1.2185412289004489e+00 2.3944397522181943e-01 9.1986394019344786e-01 1.2693301670125906e-01 1.6731787289598170e+00 1.5919575392592851e+00 1.2507143976551873e+00 5.1852390843828622e-01 7.1646877967752842e-01 8.3094316325131179e-01 3.7465336725776122e-01 5.3175087340233218e-01 1.0244905214186693e+00 1.7335018396557361e-01 1.5846001728941999e+00 6.2827304897274905e-01 3.4273375599682038e-01 1.1624503523676237e+00 6.6524995836036582e-01 1.5377245619763298e+00 1.0185379886549617e+00 1.5888634029827364e-01 1.0442922623234947e+00 5.7789052488084747e-01 1.2742911173044829e+00 7.3292576540623056e-01 1.1827182442324140e+00 9.1389534000066108e-01 9.2343272294640222e-01 3.4018608006238638e-01 3.1904353756255210e-01 3.0658406309384079e-01 1.7257034513585854e+00 9.9937861476325018e-01 3.4227380456839274e-01 1.0015342846014756e+00 4.5964847470693559e-01 1.6906833375431676e+00 5.3933866242015649e-01 1.5767545632231617e+00 8.9589843117613854e-01 9.7325976346631826e-01 1.5577725092450354e+00 8.0594459268025456e-02 9.3059344026053425e-01 1.6151590687256479e-01 1.3626471740171098e+00 9.4101815329044891e-01 1.0165023680561189e+00 5.7987850490289727e-01 1.1695418885041691e+00 1.4702849871186829e+00 8.3337821216645303e-01 8.3331111205013964e-01 6.9842290187468875e-02 7.7206455672491292e-02 1.0311910642622080e+00 1.1889866589616425e+00 1.1126438049480247e+00 1.3822469986968802e+00 1.0734474826187244e+00 7.3530831401153185e-01 9.6080363800474333e-01 9.2732796533610207e-01 9.7438830114691144e-01 7.8101210076652994e-02 1.7264597448028205e+00 8.4077779563257193e-01 8.7345960588589366e-01 8.6283683188346083e-01 1.0009042498001404e+00 1.4099950758981086e+00 1.6811642627095036e-01 1.1677533511343079e+00 1.0032641606480230e+00 3.3963017859055339e-01 1.7880504749669696e-01 8.3331444880134087e-01 1.3327214971019408e+00 1.2637346605617417e+00 5.0829777858344027e-01 1.1743571647532308e-01 6.1872271171313065e-01 1.0768759486340376e+00 3.2387834285430517e-01 1.1234450138689958e+00 2.5968370753582914e-01 5.9398016800281617e-02 6.7622642523416054e-01 2.1966697243609282e-01 1.6901471347538730e+00 3.9050968902560090e-01 1.6139209473534519e+00 1.0377749993313024e+00 3.2419025679623958e-01 3.9052607339215140e-01 9.5236578849501918e-01 1.5502260258616218e+00 7.8336581512538905e-01 3.2285746663823406e-01 1.4469283862911453e+00 2.1457772673565800e-02 1.1273754551230599e+00 8.2652887489895210e-01 4.3669175207148936e-01 9.4507446411859708e-01 1.1534127721676865e-01 8.2141900169360438e-01 1.1559518960450383e+00 1.6775156484022693e+00 1.5533024236729664e+00 1.5781649504855300e-01 3.2828789530298647e-01 8.9803023526610759e-01 1.3596983226871977e+00 9.1803466502173836e-01 2.7225725916415999e-01 6.5741196367652366e-01 4.5885552320189099e-01 3.2951249723679071e-01 1.7703368024551254e+00 4.3811471857635476e-01 1.2757582536345569e+00 9.0017885794977687e-02 8.7016862120993510e-01 3.7157917772606608e-01 5.3374276963744360e-01 1.6971151333329440e-01 3.5075804356486506e-01 6.8300061504190135e-01 1.6944850416676802e+00 9.5081601330137699e-01 7.8659151674888073e-02 3.8785092992941650e-01 1.5961758056804176e+00 1.0970839718209076e+00 6.5948959838904719e-01 1.3589015831329534e+00 1.3236392620489381e+00 1.7330139315800066e+00 1.1468715860125287e+00 1.2187349320821907e-01 8.4274137642461266e-01 9.3274949240563032e-01 1.1243845056420962e+00 1.4129657782200258e+00 3.3525645290921402e-01 1.4196645810939106e+00 4.2395775296237698e-01 9.6662542131891249e-01 1.4014098229000731e+00 8.6180137891163333e-01 6.6722026126447800e-02 1.3287475262723245e+00 8.3032215588747382e-01 2.9850659341163877e-01 9.4464841667567812e-01 1.2541806477503417e+00 1.2929289004349660e+00 1.1801913099460890e+00 1.5538699555554666e-01 1.6145426606772082e+00 1.1840242150188842e+00 1.5493764239760939e+00 1.9949004044182772e-01 5.4478217345756107e-02 1.4823208879799835e-01 1.2424721665794209e+00 9.7493527149595016e-01 1.4405625409860079e+00 6.6174669366343231e-01 1.1418519120089496e+00 9.2883010903937346e-01 4.7705850709086373e-01 5.7996439193629490e-01 9.3273195537133780e-01 6.4360047220084216e-01 8.7618218095850076e-01 1.1232360600850737e+00 8.5198538023367165e-01 6.0477754652935922e-01 9.0439718150586423e-01 8.9352422880101856e-01 8.9617096917771533e-01 1.1247406719779149e+00 2.1382945086042054e-01 1.0041124669427108e+00 1.4180145359746770e+00 8.8420250346492024e-01 1.0835468839957412e+00 2.2472550357096821e-01 9.4295155916369722e-01 1.4930327056630923e+00 1.0798374670741988e+00 1.0690998048922640e+00 1.2403071813575637e+00 1.3595898965361264e+00 6.3212253480350422e-01 8.8759418470265516e-01 1.3041086173244159e+00 1.2102907232715108e+00 7.3647231901266563e-01 1.4006882200254729e+00 8.1222871425603427e-01 1.0461349390000065e+00 8.4493532776155233e-01 6.5064216851778589e-01 1.0146545973860861e+00 1.2329012432937925e+00 8.5149416115651855e-01 1.9734979826742102e-01 1.1130285773182793e+00 8.8456743411853345e-01 9.9373631805085583e-01 6.5468843216144601e-01 9.2405141507884991e-01 1.7030166841554901e+00 1.3380542763242169e+00 3.0296974864977916e-01 4.9687232258679848e-01 3.8082305579781185e-02 9.2229076603183724e-01 1.3507786623160114e+00 9.4708493565614504e-01 4.1516028511204717e-01 1.1758371038727833e+00 1.6403857251500475e+00 1.5513933760629219e+00 1.2139551933380137e+00 1.2446831386127222e+00 6.4411339433414885e-02 1.5407032310058724e+00 4.5230811086557310e-01 1.0151664930013640e+00 5.5999229921499338e-01 7.2079652806117778e-02 5.6217921324812603e-01 2.1558833434109362e-01 7.6449882461497864e-01 1.1935000934314697e+00 9.0768853757445234e-01 9.0683156277861809e-01 9.6149009209563285e-01 8.1856302823721250e-01 1.0616641249134342e+00 9.7587975929244952e-01 2.2484663606222505e-01 1.0273614735314009e+00 6.7308571747937695e-01 1.2450347996813007e+00 5.1613492098780367e-01 3.3619464708079744e-01 1.1099789549352166e+00 1.6742109999645677e-01 3.0474494751690928e-01 8.1724477330730760e-01 3.9056763894072893e-01 7.5634434252426341e-01 7.7564407180113892e-01 1.4970288020998828e+00 6.2688612055583626e-01 8.1347452486937577e-01 7.6618393532037399e-01 9.17